 Entering Gaussian System, Link 0=g09
 Initial command:
 /apps/software//g09/l1.exe /scratch/matheusmaximo/48665.cluster.abaxnet/Gau-6815.inp -scrdir=/scratch/matheusmaximo/48665.cluster.abaxnet/
 Entering Link 1 = /apps/software//g09/l1.exe PID=      6816.
  
 Copyright (c) 1988,1990,1992,1993,1995,1998,2003,2009, Gaussian, Inc.
                  All Rights Reserved.
  
 This is part of the Gaussian(R) 09 program.  It is based on
 the Gaussian(R) 03 system (copyright 2003, Gaussian, Inc.),
 the Gaussian(R) 98 system (copyright 1998, Gaussian, Inc.),
 the Gaussian(R) 94 system (copyright 1995, Gaussian, Inc.),
 the Gaussian 92(TM) system (copyright 1992, Gaussian, Inc.),
 the Gaussian 90(TM) system (copyright 1990, Gaussian, Inc.),
 the Gaussian 88(TM) system (copyright 1988, Gaussian, Inc.),
 the Gaussian 86(TM) system (copyright 1986, Carnegie Mellon
 University), and the Gaussian 82(TM) system (copyright 1983,
 Carnegie Mellon University). Gaussian is a federally registered
 trademark of Gaussian, Inc.
  
 This software contains proprietary and confidential information,
 including trade secrets, belonging to Gaussian, Inc.
  
 This software is provided under written license and may be
 used, copied, transmitted, or stored only in accord with that
 written license.
  
 The following legend is applicable only to US Government
 contracts under FAR:
  
                    RESTRICTED RIGHTS LEGEND
  
 Use, reproduction and disclosure by the US Government is
 subject to restrictions as set forth in subparagraphs (a)
 and (c) of the Commercial Computer Software - Restricted
 Rights clause in FAR 52.227-19.
  
 Gaussian, Inc.
 340 Quinnipiac St., Bldg. 40, Wallingford CT 06492
  
  
 ---------------------------------------------------------------
 Warning -- This program may not be used in any manner that
 competes with the business of Gaussian, Inc. or will provide
 assistance to any competitor of Gaussian, Inc.  The licensee
 of this program is prohibited from giving any competitor of
 Gaussian, Inc. access to this program.  By using this program,
 the user acknowledges that Gaussian, Inc. is engaged in the
 business of creating and licensing software in the field of
 computational chemistry and represents and warrants to the
 licensee that it is not a competitor of Gaussian, Inc. and that
 it will not use this program in any manner prohibited above.
 ---------------------------------------------------------------
  

 Cite this work as:
 Gaussian 09, Revision A.02,
 M. J. Frisch, G. W. Trucks, H. B. Schlegel, G. E. Scuseria, 
 M. A. Robb, J. R. Cheeseman, G. Scalmani, V. Barone, B. Mennucci, 
 G. A. Petersson, H. Nakatsuji, M. Caricato, X. Li, H. P. Hratchian, 
 A. F. Izmaylov, J. Bloino, G. Zheng, J. L. Sonnenberg, M. Hada, 
 M. Ehara, K. Toyota, R. Fukuda, J. Hasegawa, M. Ishida, T. Nakajima, 
 Y. Honda, O. Kitao, H. Nakai, T. Vreven, J. A. Montgomery, Jr., 
 J. E. Peralta, F. Ogliaro, M. Bearpark, J. J. Heyd, E. Brothers, 
 K. N. Kudin, V. N. Staroverov, R. Kobayashi, J. Normand, 
 K. Raghavachari, A. Rendell, J. C. Burant, S. S. Iyengar, J. Tomasi, 
 M. Cossi, N. Rega, J. M. Millam, M. Klene, J. E. Knox, J. B. Cross, 
 V. Bakken, C. Adamo, J. Jaramillo, R. Gomperts, R. E. Stratmann, 
 O. Yazyev, A. J. Austin, R. Cammi, C. Pomelli, J. W. Ochterski, 
 R. L. Martin, K. Morokuma, V. G. Zakrzewski, G. A. Voth, 
 P. Salvador, J. J. Dannenberg, S. Dapprich, A. D. Daniels, 
 O. Farkas, J. B. Foresman, J. V. Ortiz, J. Cioslowski, 
 and D. J. Fox, Gaussian, Inc., Wallingford CT, 2009.
 
 ******************************************
 Gaussian 09:  EM64L-G09RevA.02 11-Jun-2009
                 7-Jan-2023 
 ******************************************
 %chk=/home/matheusmaximo/Gaussian/subst/CH3/ch3_s0.chk
 ---------------------------------------------------
 # opt=tight freq cam-b3lyp/gen scf=qc int=ultrafine
 ---------------------------------------------------
 1/7=10,14=-1,18=20,19=15,26=3,38=1/1,3;
 2/9=110,12=2,17=6,18=5,40=1/2;
 3/5=7,11=2,16=1,25=1,30=1,71=1,74=-40,75=-5/1,2,3;
 4//1;
 5/5=2,8=3,38=5/8;
 6/7=2,8=2,9=2,10=2,28=1/1;
 7//1,2,3,16;
 1/7=10,14=-1,18=20,19=15/3(2);
 2/9=110/2;
 99//99;
 2/9=110/2;
 3/5=7,6=1,11=2,16=1,25=1,30=1,71=1,74=-40,75=-5,82=7/1,2,3;
 4/5=5,16=3/1;
 5/5=2,8=3,38=5/8;
 7//1,2,3,16;
 1/7=10,14=-1,18=20,19=15/3(-5);
 2/9=110/2;
 6/7=2,8=2,9=2,10=2,19=2,28=1/1;
 99/9=1/99;
 ---------------------------
 NA+CH3 CAM-B3LYP def2-TZVPD
 ---------------------------
 Symbolic Z-matrix:
 Charge =  0 Multiplicity = 1
 C                    -0.0155    0.97361   0.6797 
 C                    -0.40416   1.55529  -0.51465 
 C                    -0.56015   0.79964  -1.66145 
 C                    -0.31809  -0.55224  -1.60268 
 C                     0.07772  -1.15877  -0.40805 
 C                     0.22887  -0.38116   0.7543 
 H                     0.09235   1.59874   1.55372 
 H                    -0.86419   1.27809  -2.57938 
 H                    -0.43583  -1.15915  -2.49117 
 N                    -0.65146   2.98807  -0.56437 
 O                    -0.99772   3.46849  -1.62641 
 O                    -0.49856   3.62995   0.45711 
 N                     0.2777   -2.51553  -0.36069 
 H                     0.36846  -3.00898  -1.23081 
 H                     0.80048  -2.90171   0.4041 
 C                     0.64245  -1.02591   2.04184 
 H                     0.68338  -0.29468   2.84569 
 H                    -0.05866  -1.80997   2.33792 
 H                     1.63292  -1.48377   1.96528 
 

 GradGradGradGradGradGradGradGradGradGradGradGradGradGradGradGradGradGrad
 Berny optimization.
 Initialization pass.
                           ----------------------------
                           !    Initial Parameters    !
                           ! (Angstroms and Degrees)  !
 --------------------------                            --------------------------
 ! Name  Definition              Value          Derivative Info.                !
 --------------------------------------------------------------------------------
 ! R1    R(1,2)                  1.3841         estimate D2E/DX2                !
 ! R2    R(1,6)                  1.3787         estimate D2E/DX2                !
 ! R3    R(1,7)                  1.08           estimate D2E/DX2                !
 ! R4    R(2,3)                  1.3822         estimate D2E/DX2                !
 ! R5    R(2,10)                 1.4548         estimate D2E/DX2                !
 ! R6    R(3,4)                  1.3746         estimate D2E/DX2                !
 ! R7    R(3,8)                  1.0789         estimate D2E/DX2                !
 ! R8    R(4,5)                  1.397          estimate D2E/DX2                !
 ! R9    R(4,9)                  1.0824         estimate D2E/DX2                !
 ! R10   R(5,6)                  1.4066         estimate D2E/DX2                !
 ! R11   R(5,13)                 1.3722         estimate D2E/DX2                !
 ! R12   R(6,16)                 1.4982         estimate D2E/DX2                !
 ! R13   R(10,11)                1.216          estimate D2E/DX2                !
 ! R14   R(10,12)                1.2161         estimate D2E/DX2                !
 ! R15   R(13,14)                1.0044         estimate D2E/DX2                !
 ! R16   R(13,15)                1.0037         estimate D2E/DX2                !
 ! R17   R(16,17)                1.0875         estimate D2E/DX2                !
 ! R18   R(16,18)                1.0927         estimate D2E/DX2                !
 ! R19   R(16,19)                1.0939         estimate D2E/DX2                !
 ! A1    A(2,1,6)              120.6254         estimate D2E/DX2                !
 ! A2    A(2,1,7)              118.8891         estimate D2E/DX2                !
 ! A3    A(6,1,7)              120.4854         estimate D2E/DX2                !
 ! A4    A(1,2,3)              121.1889         estimate D2E/DX2                !
 ! A5    A(1,2,10)             119.4129         estimate D2E/DX2                !
 ! A6    A(3,2,10)             119.3981         estimate D2E/DX2                !
 ! A7    A(2,3,4)              118.8357         estimate D2E/DX2                !
 ! A8    A(2,3,8)              119.6883         estimate D2E/DX2                !
 ! A9    A(4,3,8)              121.4757         estimate D2E/DX2                !
 ! A10   A(3,4,5)              120.8919         estimate D2E/DX2                !
 ! A11   A(3,4,9)              119.8122         estimate D2E/DX2                !
 ! A12   A(5,4,9)              119.2958         estimate D2E/DX2                !
 ! A13   A(4,5,6)              119.8056         estimate D2E/DX2                !
 ! A14   A(4,5,13)             120.0039         estimate D2E/DX2                !
 ! A15   A(6,5,13)             120.1596         estimate D2E/DX2                !
 ! A16   A(1,6,5)              118.6518         estimate D2E/DX2                !
 ! A17   A(1,6,16)             121.2208         estimate D2E/DX2                !
 ! A18   A(5,6,16)             120.127          estimate D2E/DX2                !
 ! A19   A(2,10,11)            117.8629         estimate D2E/DX2                !
 ! A20   A(2,10,12)            118.0184         estimate D2E/DX2                !
 ! A21   A(11,10,12)           124.1188         estimate D2E/DX2                !
 ! A22   A(5,13,14)            117.9705         estimate D2E/DX2                !
 ! A23   A(5,13,15)            118.8576         estimate D2E/DX2                !
 ! A24   A(14,13,15)           115.0889         estimate D2E/DX2                !
 ! A25   A(6,16,17)            110.8721         estimate D2E/DX2                !
 ! A26   A(6,16,18)            111.3793         estimate D2E/DX2                !
 ! A27   A(6,16,19)            111.7128         estimate D2E/DX2                !
 ! A28   A(17,16,18)           107.8395         estimate D2E/DX2                !
 ! A29   A(17,16,19)           107.4051         estimate D2E/DX2                !
 ! A30   A(18,16,19)           107.4338         estimate D2E/DX2                !
 ! D1    D(6,1,2,3)              0.1018         estimate D2E/DX2                !
 ! D2    D(6,1,2,10)          -179.8254         estimate D2E/DX2                !
 ! D3    D(7,1,2,3)           -179.8318         estimate D2E/DX2                !
 ! D4    D(7,1,2,10)             0.241          estimate D2E/DX2                !
 ! D5    D(2,1,6,5)              0.1235         estimate D2E/DX2                !
 ! D6    D(2,1,6,16)          -179.6418         estimate D2E/DX2                !
 ! D7    D(7,1,6,5)           -179.9439         estimate D2E/DX2                !
 ! D8    D(7,1,6,16)             0.2907         estimate D2E/DX2                !
 ! D9    D(1,2,3,4)             -0.1936         estimate D2E/DX2                !
 ! D10   D(1,2,3,8)            179.9916         estimate D2E/DX2                !
 ! D11   D(10,2,3,4)           179.7337         estimate D2E/DX2                !
 ! D12   D(10,2,3,8)            -0.0811         estimate D2E/DX2                !
 ! D13   D(1,2,10,11)         -179.6574         estimate D2E/DX2                !
 ! D14   D(1,2,10,12)            0.381          estimate D2E/DX2                !
 ! D15   D(3,2,10,11)            0.414          estimate D2E/DX2                !
 ! D16   D(3,2,10,12)         -179.5476         estimate D2E/DX2                !
 ! D17   D(2,3,4,5)              0.0586         estimate D2E/DX2                !
 ! D18   D(2,3,4,9)            179.9706         estimate D2E/DX2                !
 ! D19   D(8,3,4,5)            179.87           estimate D2E/DX2                !
 ! D20   D(8,3,4,9)             -0.218          estimate D2E/DX2                !
 ! D21   D(3,4,5,6)              0.1651         estimate D2E/DX2                !
 ! D22   D(3,4,5,13)           178.1469         estimate D2E/DX2                !
 ! D23   D(9,4,5,6)           -179.7474         estimate D2E/DX2                !
 ! D24   D(9,4,5,13)            -1.7656         estimate D2E/DX2                !
 ! D25   D(4,5,6,1)             -0.2542         estimate D2E/DX2                !
 ! D26   D(4,5,6,16)           179.5138         estimate D2E/DX2                !
 ! D27   D(13,5,6,1)          -178.2328         estimate D2E/DX2                !
 ! D28   D(13,5,6,16)            1.5352         estimate D2E/DX2                !
 ! D29   D(4,5,13,14)           15.6624         estimate D2E/DX2                !
 ! D30   D(4,5,13,15)          162.8891         estimate D2E/DX2                !
 ! D31   D(6,5,13,14)         -166.363          estimate D2E/DX2                !
 ! D32   D(6,5,13,15)          -19.1363         estimate D2E/DX2                !
 ! D33   D(1,6,16,17)            1.4949         estimate D2E/DX2                !
 ! D34   D(1,6,16,18)          121.5855         estimate D2E/DX2                !
 ! D35   D(1,6,16,19)         -118.2685         estimate D2E/DX2                !
 ! D36   D(5,6,16,17)         -178.267          estimate D2E/DX2                !
 ! D37   D(5,6,16,18)          -58.1764         estimate D2E/DX2                !
 ! D38   D(5,6,16,19)           61.9696         estimate D2E/DX2                !
 --------------------------------------------------------------------------------
 Trust Radius=3.00D-01 FncErr=1.00D-07 GrdErr=1.00D-06
 Number of steps in this run=  97 maximum allowed number of steps= 114.
 GradGradGradGradGradGradGradGradGradGradGradGradGradGradGradGradGradGrad

                          Input orientation:                          
 ---------------------------------------------------------------------
 Center     Atomic      Atomic             Coordinates (Angstroms)
 Number     Number       Type             X           Y           Z
 ---------------------------------------------------------------------
      1          6           0       -0.015505    0.973612    0.679701
      2          6           0       -0.404161    1.555290   -0.514647
      3          6           0       -0.560151    0.799639   -1.661450
      4          6           0       -0.318086   -0.552244   -1.602676
      5          6           0        0.077717   -1.158768   -0.408049
      6          6           0        0.228869   -0.381157    0.754299
      7          1           0        0.092351    1.598738    1.553717
      8          1           0       -0.864189    1.278087   -2.579379
      9          1           0       -0.435832   -1.159147   -2.491173
     10          7           0       -0.651460    2.988069   -0.564372
     11          8           0       -0.997722    3.468486   -1.626412
     12          8           0       -0.498561    3.629946    0.457107
     13          7           0        0.277699   -2.515530   -0.360693
     14          1           0        0.368456   -3.008981   -1.230812
     15          1           0        0.800482   -2.901709    0.404102
     16          6           0        0.642453   -1.025909    2.041842
     17          1           0        0.683375   -0.294676    2.845692
     18          1           0       -0.058658   -1.809970    2.337919
     19          1           0        1.632922   -1.483774    1.965284
 ---------------------------------------------------------------------
                    Distance matrix (angstroms):
                    1          2          3          4          5
     1  C    0.000000
     2  C    1.384149   0.000000
     3  C    2.409958   1.382208   0.000000
     4  C    2.762071   2.373377   1.374641   0.000000
     5  C    2.395608   2.758565   2.411068   1.397019   0.000000
     6  C    1.378653   2.400162   2.802263   2.425647   1.406620
     7  H    1.079963   2.127567   3.376628   3.841614   3.384167
     8  H    3.381504   2.133444   1.078862   2.145295   3.397075
     9  H    3.844447   3.357949   2.130900   1.082414   2.145492
    10  N    2.451569   1.454815   2.449723   3.704461   4.213359
    11  O    3.536566   2.290994   2.704707   4.077835   4.904330
    12  O    2.709059   2.292905   3.535918   4.665403   4.900242
    13  N    3.652739   4.130401   3.658457   2.398326   1.372238
    14  H    4.433795   4.684271   3.943773   2.577824   2.045667
    15  H    3.969875   4.707452   4.451719   3.286082   2.054220
    16  C    2.507274   3.780691   4.300379   3.798619   2.517647
    17  H    2.605475   3.987102   4.801896   4.566973   3.420571
    18  H    3.240352   4.425096   4.801719   4.144570   2.825421
    19  H    3.226265   4.419918   4.814223   4.171872   2.856047
                    6          7          8          9         10
     6  C    0.000000
     7  H    2.139554   0.000000
     8  H    3.880886   4.254441   0.000000
     9  H    3.402967   4.924027   2.476162   0.000000
    10  N    3.723649   2.640037   2.651329   4.578040   0.000000
    11  O    4.689570   3.846743   2.392451   4.741151   1.215988
    12  O    4.087349   2.382758   3.858130   5.624206   1.216060
    13  N    2.408556   4.541643   4.540705   2.624470   5.585197
    14  H    3.296302   5.390817   4.660150   2.378503   6.119557
    15  H    2.608172   4.698627   5.398424   3.598278   6.142928
    16  C    1.498173   2.725738   5.379038   4.661403   4.957679
    17  H    2.141956   2.367176   5.856614   5.521056   4.918001
    18  H    2.152215   3.501010   5.862149   4.887326   5.638784
    19  H    2.157223   3.470537   5.875151   4.923935   5.622717
                   11         12         13         14         15
    11  O    0.000000
    12  O    2.148553   0.000000
    13  N    6.247975   6.248059   0.000000
    14  H    6.631781   6.904791   1.004409   0.000000
    15  H    6.923576   6.659792   1.003667   1.694430   0.000000
    16  C    6.028752   5.048790   2.850297   3.836393   2.495155
    17  H    6.081709   4.743939   3.921438   4.907597   3.573752
    18  H    6.667822   5.772664   2.809530   3.788916   2.381106
    19  H    6.659238   5.741772   2.882936   3.760340   2.267330
                   16         17         18         19
    16  C    0.000000
    17  H    1.087451   0.000000
    18  H    1.092690   1.761978   0.000000
    19  H    1.093861   1.758043   1.762585   0.000000
 Stoichiometry    C7H8N2O2
 Framework group  C1[X(C7H8N2O2)]
 Deg. of freedom    51
 Full point group                 C1      NOp   1
 Largest Abelian subgroup         C1      NOp   1
 Largest concise Abelian subgroup C1      NOp   1
                         Standard orientation:                         
 ---------------------------------------------------------------------
 Center     Atomic      Atomic             Coordinates (Angstroms)
 Number     Number       Type             X           Y           Z
 ---------------------------------------------------------------------
      1          6           0        0.072927    0.957528   -0.001780
      2          6           0        0.954614   -0.109476   -0.001956
      3          6           0        0.499065   -1.414452   -0.005415
      4          6           0       -0.856355   -1.643522   -0.004649
      5          6           0       -1.763357   -0.580977   -0.001684
      6          6           0       -1.288969    0.743234   -0.002960
      7          1           0        0.469493    1.962045   -0.001797
      8          1           0        1.207831   -2.227836   -0.005609
      9          1           0       -1.230462   -2.659227   -0.007801
     10          7           0        2.386631    0.147010    0.003170
     11          8           0        3.135579   -0.810935   -0.003548
     12          8           0        2.759637    1.304394    0.014611
     13          7           0       -3.112264   -0.830109   -0.039394
     14          1           0       -3.425485   -1.760866    0.171368
     15          1           0       -3.747533   -0.098068    0.221174
     16          6           0       -2.255228    1.888138   -0.010795
     17          1           0       -1.728816    2.839188   -0.041531
     18          1           0       -2.917925    1.844144   -0.878474
     19          1           0       -2.885582    1.891804    0.883169
 ---------------------------------------------------------------------
 Rotational constants (GHZ):      2.4709155      0.7375479      0.5701416
 General basis read from cards:  (5D, 7F)
 There are   485 symmetry adapted basis functions of A   symmetry.
 Integral buffers will be    131072 words long.
 Raffenetti 2 integral format.
 Two-electron integral symmetry is turned on.
   485 basis functions,   732 primitive gaussians,   551 cartesian basis functions
    40 alpha electrons       40 beta electrons
       nuclear repulsion energy       592.7527034869 Hartrees.
 NAtoms=   19 NActive=   19 NUniq=   19 SFac= 7.50D-01 NAtFMM=   80 NAOKFM=F Big=F
 One-electron integrals computed using PRISM.
 NBasis=   485 RedAO= T  NBF=   485
 NBsUse=   482 1.00D-06 NBFU=   482
 Harris functional with IExCor=20419 diagonalized for initial guess.
 ExpMin= 4.85D-02 ExpMax= 2.70D+04 ExpMxC= 9.22D+02 IAcc=3 IRadAn=         5 AccDes= 0.00D+00
 HarFok:  IExCor=20419 AccDes= 0.00D+00 IRadAn=         5 IDoV= 1
 ScaDFX=  1.000000  1.000000  1.000000  1.000000
 FoFCou: FMM=F IPFlag=           0 FMFlag=      100000 FMFlg1=           0
         NFxFlg=           0 DoJE=T BraDBF=F KetDBF=T FulRan=T
         Omega=  0.000000  0.000000  1.000000  0.000000  0.000000 ICntrl=     500 IOpCl=  0
         NMat0=    1 NMatS0=    1 NMatT0=    0 NMatD0=    1 NMtDS0=    0 NMtDT0=    0
         I1Cent=           4 NGrid=           0.
 Petite list used in FoFCou.
 Initial guess orbital symmetries:
       Occupied  (A) (A) (A) (A) (A) (A) (A) (A) (A) (A) (A) (A)
                 (A) (A) (A) (A) (A) (A) (A) (A) (A) (A) (A) (A)
                 (A) (A) (A) (A) (A) (A) (A) (A) (A) (A) (A) (A)
                 (A) (A) (A) (A)
       Virtual   (A) (A) (A) (A) (A) (A) (A) (A) (A) (A) (A) (A)
                 (A) (A) (A) (A) (A) (A) (A) (A) (A) (A) (A) (A)
                 (A) (A) (A) (A) (A) (A) (A) (A) (A) (A) (A) (A)
                 (A) (A) (A) (A) (A) (A) (A) (A) (A) (A) (A) (A)
                 (A) (A) (A) (A) (A) (A) (A) (A) (A) (A) (A) (A)
                 (A) (A) (A) (A) (A) (A) (A) (A) (A) (A) (A) (A)
                 (A) (A) (A) (A) (A) (A) (A) (A) (A) (A) (A) (A)
                 (A) (A) (A) (A) (A) (A) (A) (A) (A) (A) (A) (A)
                 (A) (A) (A) (A) (A) (A) (A) (A) (A) (A) (A) (A)
                 (A) (A) (A) (A) (A) (A) (A) (A) (A) (A) (A) (A)
                 (A) (A) (A) (A) (A) (A) (A) (A) (A) (A) (A) (A)
                 (A) (A) (A) (A) (A) (A) (A) (A) (A) (A) (A) (A)
                 (A) (A) (A) (A) (A) (A) (A) (A) (A) (A) (A) (A)
                 (A) (A) (A) (A) (A) (A) (A) (A) (A) (A) (A) (A)
                 (A) (A) (A) (A) (A) (A) (A) (A) (A) (A) (A) (A)
                 (A) (A) (A) (A) (A) (A) (A) (A) (A) (A) (A) (A)
                 (A) (A) (A) (A) (A) (A) (A) (A) (A) (A) (A) (A)
                 (A) (A) (A) (A) (A) (A) (A) (A) (A) (A) (A) (A)
                 (A) (A) (A) (A) (A) (A) (A) (A) (A) (A) (A) (A)
                 (A) (A) (A) (A) (A) (A) (A) (A) (A) (A) (A) (A)
                 (A) (A) (A) (A) (A) (A) (A) (A) (A) (A) (A) (A)
                 (A) (A) (A) (A) (A) (A) (A) (A) (A) (A) (A) (A)
                 (A) (A) (A) (A) (A) (A) (A) (A) (A) (A) (A) (A)
                 (A) (A) (A) (A) (A) (A) (A) (A) (A) (A) (A) (A)
                 (A) (A) (A) (A) (A) (A) (A) (A) (A) (A) (A) (A)
                 (A) (A) (A) (A) (A) (A) (A) (A) (A) (A) (A) (A)
                 (A) (A) (A) (A) (A) (A) (A) (A) (A) (A) (A) (A)
                 (A) (A) (A) (A) (A) (A) (A) (A) (A) (A) (A) (A)
                 (A) (A) (A) (A) (A) (A) (A) (A) (A) (A) (A) (A)
                 (A) (A) (A) (A) (A) (A) (A) (A) (A) (A) (A) (A)
                 (A) (A) (A) (A) (A) (A) (A) (A) (A) (A) (A) (A)
                 (A) (A) (A) (A) (A) (A) (A) (A) (A) (A) (A) (A)
                 (A) (A) (A) (A) (A) (A) (A) (A) (A) (A) (A) (A)
                 (A) (A) (A) (A) (A) (A) (A) (A) (A) (A) (A) (A)
                 (A) (A) (A) (A) (A) (A) (A) (A) (A) (A) (A) (A)
                 (A) (A) (A) (A) (A) (A) (A) (A) (A) (A) (A) (A)
                 (A) (A) (A) (A) (A) (A) (A) (A) (A) (A)
 The electronic state of the initial guess is 1-A.
 FoFJK:  IHMeth= 1 ICntrl=     0 DoSepK=T KAlg= 1 I1Cent= 0 FoldK=F
 Gradient too large for Newton-Raphson -- use scaled steepest descent instead.
 FoFJK:  IHMeth= 1 ICntrl=     0 DoSepK=T KAlg= 1 I1Cent= 0 FoldK=F
 FoFJK:  IHMeth= 1 ICntrl=     0 DoSepK=T KAlg= 1 I1Cent= 0 FoldK=F
 FoFJK:  IHMeth= 1 ICntrl=     0 DoSepK=T KAlg= 1 I1Cent= 0 FoldK=F
 FoFJK:  IHMeth= 1 ICntrl=     0 DoSepK=T KAlg= 1 I1Cent= 0 FoldK=F
 Gradient too large for Newton-Raphson -- use scaled steepest descent instead.
 FoFJK:  IHMeth= 1 ICntrl=     0 DoSepK=T KAlg= 1 I1Cent= 0 FoldK=F
 FoFJK:  IHMeth= 1 ICntrl=     0 DoSepK=T KAlg= 1 I1Cent= 0 FoldK=F
 FoFJK:  IHMeth= 1 ICntrl=     0 DoSepK=T KAlg= 1 I1Cent= 0 FoldK=F
 FoFJK:  IHMeth= 1 ICntrl=     0 DoSepK=T KAlg= 1 I1Cent= 0 FoldK=F
 FoFJK:  IHMeth= 1 ICntrl=     0 DoSepK=T KAlg= 1 I1Cent= 0 FoldK=F
 Gradient too large for Newton-Raphson -- use scaled steepest descent instead.
 FoFJK:  IHMeth= 1 ICntrl=     0 DoSepK=T KAlg= 1 I1Cent= 0 FoldK=F
 FoFJK:  IHMeth= 1 ICntrl=     0 DoSepK=T KAlg= 1 I1Cent= 0 FoldK=F
 FoFJK:  IHMeth= 1 ICntrl=     0 DoSepK=T KAlg= 1 I1Cent= 0 FoldK=F
 Gradient too large for Newton-Raphson -- use scaled steepest descent instead.
 FoFJK:  IHMeth= 1 ICntrl=     0 DoSepK=T KAlg= 1 I1Cent= 0 FoldK=F
 FoFJK:  IHMeth= 1 ICntrl=     0 DoSepK=T KAlg= 1 I1Cent= 0 FoldK=F
 FoFJK:  IHMeth= 1 ICntrl=     0 DoSepK=T KAlg= 1 I1Cent= 0 FoldK=F
 FoFJK:  IHMeth= 1 ICntrl=     0 DoSepK=T KAlg= 1 I1Cent= 0 FoldK=F
 Gradient too large for Newton-Raphson -- use scaled steepest descent instead.
 FoFJK:  IHMeth= 1 ICntrl=     0 DoSepK=T KAlg= 1 I1Cent= 0 FoldK=F
 FoFJK:  IHMeth= 1 ICntrl=     0 DoSepK=T KAlg= 1 I1Cent= 0 FoldK=F
 FoFJK:  IHMeth= 1 ICntrl=     0 DoSepK=T KAlg= 1 I1Cent= 0 FoldK=F
 LinEq1:  Iter=  0 NonCon=     1 RMS=7.19D-05 Max=7.13D-03
 AX will form     1 AO Fock derivatives at one time.
 FoFJK:  IHMeth= 1 ICntrl=     0 DoSepK=T KAlg= 1 I1Cent= 0 FoldK=F
 LinEq1:  Iter=  1 NonCon=     1 RMS=5.41D-05 Max=2.74D-03
 FoFJK:  IHMeth= 1 ICntrl=     0 DoSepK=T KAlg= 1 I1Cent= 0 FoldK=F
 LinEq1:  Iter=  2 NonCon=     1 RMS=1.18D-05 Max=7.01D-04
 FoFJK:  IHMeth= 1 ICntrl=     0 DoSepK=T KAlg= 1 I1Cent= 0 FoldK=F
 LinEq1:  Iter=  3 NonCon=     1 RMS=1.33D-05 Max=9.06D-04
 FoFJK:  IHMeth= 1 ICntrl=     0 DoSepK=T KAlg= 1 I1Cent= 0 FoldK=F
 LinEq1:  Iter=  4 NonCon=     1 RMS=2.14D-06 Max=9.68D-05
 FoFJK:  IHMeth= 1 ICntrl=     0 DoSepK=T KAlg= 1 I1Cent= 0 FoldK=F
 LinEq1:  Iter=  5 NonCon=     1 RMS=7.58D-07 Max=3.65D-05
 FoFJK:  IHMeth= 1 ICntrl=     0 DoSepK=T KAlg= 1 I1Cent= 0 FoldK=F
 LinEq1:  Iter=  6 NonCon=     1 RMS=4.05D-07 Max=2.23D-05
 FoFJK:  IHMeth= 1 ICntrl=     0 DoSepK=T KAlg= 1 I1Cent= 0 FoldK=F
 LinEq1:  Iter=  7 NonCon=     1 RMS=1.69D-07 Max=4.86D-06
 FoFJK:  IHMeth= 1 ICntrl=     0 DoSepK=T KAlg= 1 I1Cent= 0 FoldK=F
 LinEq1:  Iter=  8 NonCon=     1 RMS=6.96D-08 Max=2.74D-06
 FoFJK:  IHMeth= 1 ICntrl=     0 DoSepK=T KAlg= 1 I1Cent= 0 FoldK=F
 LinEq1:  Iter=  9 NonCon=     1 RMS=3.67D-08 Max=1.33D-06
 FoFJK:  IHMeth= 1 ICntrl=     0 DoSepK=T KAlg= 1 I1Cent= 0 FoldK=F
 LinEq1:  Iter= 10 NonCon=     1 RMS=1.60D-08 Max=6.67D-07
 FoFJK:  IHMeth= 1 ICntrl=     0 DoSepK=T KAlg= 1 I1Cent= 0 FoldK=F
 LinEq1:  Iter= 11 NonCon=     1 RMS=7.56D-09 Max=3.22D-07
 FoFJK:  IHMeth= 1 ICntrl=     0 DoSepK=T KAlg= 1 I1Cent= 0 FoldK=F
 LinEq1:  Iter= 12 NonCon=     0 RMS=3.20D-09 Max=1.14D-07
 Linear equations converged to 1.880D-08 1.880D-07 after    12 iterations.
 FoFJK:  IHMeth= 1 ICntrl=     0 DoSepK=T KAlg= 1 I1Cent= 0 FoldK=F
 FoFJK:  IHMeth= 1 ICntrl=     0 DoSepK=T KAlg= 1 I1Cent= 0 FoldK=F
 FoFJK:  IHMeth= 1 ICntrl=     0 DoSepK=T KAlg= 1 I1Cent= 0 FoldK=F
 LinEq1:  Iter=  0 NonCon=     1 RMS=6.90D-07 Max=5.12D-05
 FoFJK:  IHMeth= 1 ICntrl=     0 DoSepK=T KAlg= 1 I1Cent= 0 FoldK=F
 LinEq1:  Iter=  1 NonCon=     1 RMS=2.22D-07 Max=9.74D-06
 FoFJK:  IHMeth= 1 ICntrl=     0 DoSepK=T KAlg= 1 I1Cent= 0 FoldK=F
 LinEq1:  Iter=  2 NonCon=     1 RMS=1.15D-07 Max=4.46D-06
 FoFJK:  IHMeth= 1 ICntrl=     0 DoSepK=T KAlg= 1 I1Cent= 0 FoldK=F
 LinEq1:  Iter=  3 NonCon=     1 RMS=6.28D-08 Max=2.58D-06
 FoFJK:  IHMeth= 1 ICntrl=     0 DoSepK=T KAlg= 1 I1Cent= 0 FoldK=F
 LinEq1:  Iter=  4 NonCon=     1 RMS=4.93D-08 Max=3.79D-06
 FoFJK:  IHMeth= 1 ICntrl=     0 DoSepK=T KAlg= 1 I1Cent= 0 FoldK=F
 LinEq1:  Iter=  5 NonCon=     1 RMS=3.03D-08 Max=1.56D-06
 FoFJK:  IHMeth= 1 ICntrl=     0 DoSepK=T KAlg= 1 I1Cent= 0 FoldK=F
 LinEq1:  Iter=  6 NonCon=     1 RMS=1.88D-08 Max=6.43D-07
 FoFJK:  IHMeth= 1 ICntrl=     0 DoSepK=T KAlg= 1 I1Cent= 0 FoldK=F
 LinEq1:  Iter=  7 NonCon=     1 RMS=8.80D-09 Max=3.61D-07
 FoFJK:  IHMeth= 1 ICntrl=     0 DoSepK=T KAlg= 1 I1Cent= 0 FoldK=F
 LinEq1:  Iter=  8 NonCon=     1 RMS=4.90D-09 Max=2.24D-07
 FoFJK:  IHMeth= 1 ICntrl=     0 DoSepK=T KAlg= 1 I1Cent= 0 FoldK=F
 LinEq1:  Iter=  9 NonCon=     1 RMS=1.89D-09 Max=5.19D-08
 FoFJK:  IHMeth= 1 ICntrl=     0 DoSepK=T KAlg= 1 I1Cent= 0 FoldK=F
 LinEq1:  Iter= 10 NonCon=     1 RMS=9.28D-10 Max=3.29D-08
 FoFJK:  IHMeth= 1 ICntrl=     0 DoSepK=T KAlg= 1 I1Cent= 0 FoldK=F
 LinEq1:  Iter= 11 NonCon=     1 RMS=3.45D-10 Max=1.27D-08
 FoFJK:  IHMeth= 1 ICntrl=     0 DoSepK=T KAlg= 1 I1Cent= 0 FoldK=F
 LinEq1:  Iter= 12 NonCon=     0 RMS=2.01D-10 Max=9.37D-09
 Linear equations converged to 9.949D-10 9.949D-09 after    12 iterations.
 FoFJK:  IHMeth= 1 ICntrl=     0 DoSepK=T KAlg= 1 I1Cent= 0 FoldK=F
 SCF Done:  E(RCAM-B3LYP) =  -531.395903340     a.u. after    8 cycles
            Convg  =    0.5973D-08                    48 Fock formations.
              S**2 =  0.0000                  -V/T =  2.0040

 **********************************************************************

            Population analysis using the SCF density.

 **********************************************************************

 Orbital symmetries:
       Occupied  (A) (A) (A) (A) (A) (A) (A) (A) (A) (A) (A) (A)
                 (A) (A) (A) (A) (A) (A) (A) (A) (A) (A) (A) (A)
                 (A) (A) (A) (A) (A) (A) (A) (A) (A) (A) (A) (A)
                 (A) (A) (A) (A)
       Virtual   (A) (A) (A) (A) (A) (A) (A) (A) (A) (A) (A) (A)
                 (A) (A) (A) (A) (A) (A) (A) (A) (A) (A) (A) (A)
                 (A) (A) (A) (A) (A) (A) (A) (A) (A) (A) (A) (A)
                 (A) (A) (A) (A) (A) (A) (A) (A) (A) (A) (A) (A)
                 (A) (A) (A) (A) (A) (A) (A) (A) (A) (A) (A) (A)
                 (A) (A) (A) (A) (A) (A) (A) (A) (A) (A) (A) (A)
                 (A) (A) (A) (A) (A) (A) (A) (A) (A) (A) (A) (A)
                 (A) (A) (A) (A) (A) (A) (A) (A) (A) (A) (A) (A)
                 (A) (A) (A) (A) (A) (A) (A) (A) (A) (A) (A) (A)
                 (A) (A) (A) (A) (A) (A) (A) (A) (A) (A) (A) (A)
                 (A) (A) (A) (A) (A) (A) (A) (A) (A) (A) (A) (A)
                 (A) (A) (A) (A) (A) (A) (A) (A) (A) (A) (A) (A)
                 (A) (A) (A) (A) (A) (A) (A) (A) (A) (A) (A) (A)
                 (A) (A) (A) (A) (A) (A) (A) (A) (A) (A) (A) (A)
                 (A) (A) (A) (A) (A) (A) (A) (A) (A) (A) (A) (A)
                 (A) (A) (A) (A) (A) (A) (A) (A) (A) (A) (A) (A)
                 (A) (A) (A) (A) (A) (A) (A) (A) (A) (A) (A) (A)
                 (A) (A) (A) (A) (A) (A) (A) (A) (A) (A) (A) (A)
                 (A) (A) (A) (A) (A) (A) (A) (A) (A) (A) (A) (A)
                 (A) (A) (A) (A) (A) (A) (A) (A) (A) (A) (A) (A)
                 (A) (A) (A) (A) (A) (A) (A) (A) (A) (A) (A) (A)
                 (A) (A) (A) (A) (A) (A) (A) (A) (A) (A) (A) (A)
                 (A) (A) (A) (A) (A) (A) (A) (A) (A) (A) (A) (A)
                 (A) (A) (A) (A) (A) (A) (A) (A) (A) (A) (A) (A)
                 (A) (A) (A) (A) (A) (A) (A) (A) (A) (A) (A) (A)
                 (A) (A) (A) (A) (A) (A) (A) (A) (A) (A) (A) (A)
                 (A) (A) (A) (A) (A) (A) (A) (A) (A) (A) (A) (A)
                 (A) (A) (A) (A) (A) (A) (A) (A) (A) (A) (A) (A)
                 (A) (A) (A) (A) (A) (A) (A) (A) (A) (A) (A) (A)
                 (A) (A) (A) (A) (A) (A) (A) (A) (A) (A) (A) (A)
                 (A) (A) (A) (A) (A) (A) (A) (A) (A) (A) (A) (A)
                 (A) (A) (A) (A) (A) (A) (A) (A) (A) (A) (A) (A)
                 (A) (A) (A) (A) (A) (A) (A) (A) (A) (A) (A) (A)
                 (A) (A) (A) (A) (A) (A) (A) (A) (A) (A) (A) (A)
                 (A) (A) (A) (A) (A) (A) (A) (A) (A) (A) (A) (A)
                 (A) (A) (A) (A) (A) (A) (A) (A) (A) (A) (A) (A)
                 (A) (A) (A) (A) (A) (A) (A) (A) (A) (A)
 The electronic state is 1-A.
 Alpha  occ. eigenvalues --  -19.22243 -19.22229 -14.62427 -14.42285 -10.31722
 Alpha  occ. eigenvalues --  -10.29599 -10.27331 -10.27144 -10.27031 -10.26350
 Alpha  occ. eigenvalues --  -10.26139  -1.31473  -1.13440  -1.03914  -0.96658
 Alpha  occ. eigenvalues --   -0.89017  -0.86883  -0.79604  -0.76922  -0.71147
 Alpha  occ. eigenvalues --   -0.66263  -0.63137  -0.62384  -0.61157  -0.60844
 Alpha  occ. eigenvalues --   -0.57880  -0.53812  -0.52485  -0.52218  -0.50564
 Alpha  occ. eigenvalues --   -0.49222  -0.46832  -0.46203  -0.42934  -0.41097
 Alpha  occ. eigenvalues --   -0.37597  -0.37342  -0.35850  -0.32988  -0.28752
 Alpha virt. eigenvalues --   -0.03676   0.01375   0.01632   0.03439   0.04286
 Alpha virt. eigenvalues --    0.05622   0.06580   0.06825   0.07207   0.09312
 Alpha virt. eigenvalues --    0.09860   0.10181   0.10494   0.10728   0.12145
 Alpha virt. eigenvalues --    0.12606   0.13158   0.14501   0.14709   0.15573
 Alpha virt. eigenvalues --    0.15725   0.16751   0.18277   0.18724   0.18850
 Alpha virt. eigenvalues --    0.19980   0.20682   0.21072   0.21148   0.21336
 Alpha virt. eigenvalues --    0.22589   0.23420   0.23892   0.24299   0.24516
 Alpha virt. eigenvalues --    0.25216   0.26030   0.26244   0.26689   0.26970
 Alpha virt. eigenvalues --    0.27154   0.27951   0.28222   0.28739   0.28979
 Alpha virt. eigenvalues --    0.29123   0.30280   0.30559   0.30919   0.31514
 Alpha virt. eigenvalues --    0.31944   0.32466   0.32744   0.33091   0.34149
 Alpha virt. eigenvalues --    0.35736   0.36025   0.36409   0.36750   0.36963
 Alpha virt. eigenvalues --    0.37349   0.37704   0.38764   0.39052   0.40251
 Alpha virt. eigenvalues --    0.40913   0.41117   0.41466   0.41608   0.42167
 Alpha virt. eigenvalues --    0.42684   0.43248   0.43672   0.44123   0.45016
 Alpha virt. eigenvalues --    0.45369   0.45701   0.46174   0.47188   0.47814
 Alpha virt. eigenvalues --    0.48149   0.48749   0.49324   0.49457   0.50806
 Alpha virt. eigenvalues --    0.51098   0.51695   0.51915   0.52975   0.53684
 Alpha virt. eigenvalues --    0.53793   0.54331   0.54672   0.56245   0.56604
 Alpha virt. eigenvalues --    0.56955   0.57543   0.58287   0.58947   0.59792
 Alpha virt. eigenvalues --    0.60365   0.61192   0.62493   0.62803   0.63845
 Alpha virt. eigenvalues --    0.64104   0.64260   0.64738   0.64973   0.66134
 Alpha virt. eigenvalues --    0.66785   0.67060   0.67406   0.68342   0.68522
 Alpha virt. eigenvalues --    0.69756   0.70553   0.70704   0.70932   0.72070
 Alpha virt. eigenvalues --    0.72590   0.72768   0.73761   0.73941   0.74537
 Alpha virt. eigenvalues --    0.74630   0.75180   0.76414   0.77210   0.77934
 Alpha virt. eigenvalues --    0.77985   0.78762   0.79058   0.79774   0.80495
 Alpha virt. eigenvalues --    0.81372   0.82266   0.82742   0.83045   0.83449
 Alpha virt. eigenvalues --    0.83667   0.85549   0.86081   0.86764   0.86906
 Alpha virt. eigenvalues --    0.88906   0.89956   0.90319   0.91089   0.93161
 Alpha virt. eigenvalues --    0.93534   0.95089   0.96715   0.98113   0.99524
 Alpha virt. eigenvalues --    0.99753   1.00259   1.00861   1.02338   1.03464
 Alpha virt. eigenvalues --    1.03831   1.04704   1.05206   1.05667   1.06869
 Alpha virt. eigenvalues --    1.08114   1.09146   1.10161   1.11635   1.14256
 Alpha virt. eigenvalues --    1.15035   1.16387   1.17431   1.18262   1.21388
 Alpha virt. eigenvalues --    1.22445   1.24077   1.26025   1.26722   1.31061
 Alpha virt. eigenvalues --    1.31172   1.32935   1.35545   1.35961   1.37593
 Alpha virt. eigenvalues --    1.40080   1.42096   1.42815   1.43804   1.44182
 Alpha virt. eigenvalues --    1.46524   1.48689   1.49853   1.51841   1.52751
 Alpha virt. eigenvalues --    1.52933   1.54858   1.55947   1.57906   1.59892
 Alpha virt. eigenvalues --    1.62930   1.63624   1.65449   1.66724   1.68993
 Alpha virt. eigenvalues --    1.70923   1.72437   1.74230   1.74826   1.76928
 Alpha virt. eigenvalues --    1.79207   1.80721   1.81090   1.81338   1.85015
 Alpha virt. eigenvalues --    1.85172   1.85234   1.87303   1.88498   1.91411
 Alpha virt. eigenvalues --    1.91881   1.92306   1.93583   1.95058   1.96308
 Alpha virt. eigenvalues --    1.97785   1.98375   1.99417   2.00303   2.01943
 Alpha virt. eigenvalues --    2.02941   2.05472   2.06095   2.07520   2.10265
 Alpha virt. eigenvalues --    2.12172   2.13324   2.19805   2.21532   2.21977
 Alpha virt. eigenvalues --    2.22617   2.26250   2.27652   2.29220   2.32248
 Alpha virt. eigenvalues --    2.33464   2.35305   2.35815   2.36485   2.37904
 Alpha virt. eigenvalues --    2.39781   2.42951   2.43378   2.44337   2.44459
 Alpha virt. eigenvalues --    2.46842   2.48984   2.51920   2.53783   2.58266
 Alpha virt. eigenvalues --    2.60046   2.60643   2.62165   2.63345   2.66085
 Alpha virt. eigenvalues --    2.67054   2.68202   2.70946   2.71888   2.73013
 Alpha virt. eigenvalues --    2.74748   2.76079   2.78344   2.81831   2.83276
 Alpha virt. eigenvalues --    2.86633   2.87654   2.88069   2.90145   2.91044
 Alpha virt. eigenvalues --    2.92274   2.93339   2.94069   2.94805   2.95374
 Alpha virt. eigenvalues --    2.99338   3.00560   3.01352   3.02895   3.04470
 Alpha virt. eigenvalues --    3.06169   3.09562   3.10746   3.12132   3.13637
 Alpha virt. eigenvalues --    3.14667   3.15401   3.17187   3.17517   3.18454
 Alpha virt. eigenvalues --    3.22495   3.24342   3.26009   3.27920   3.28548
 Alpha virt. eigenvalues --    3.30215   3.31546   3.32047   3.33313   3.34932
 Alpha virt. eigenvalues --    3.37914   3.38262   3.40363   3.41224   3.41456
 Alpha virt. eigenvalues --    3.44418   3.44664   3.45350   3.46906   3.48235
 Alpha virt. eigenvalues --    3.49776   3.50660   3.51354   3.53538   3.54597
 Alpha virt. eigenvalues --    3.57512   3.57993   3.59107   3.61156   3.62734
 Alpha virt. eigenvalues --    3.63616   3.64925   3.65389   3.67130   3.70003
 Alpha virt. eigenvalues --    3.71100   3.73958   3.76993   3.81846   3.83421
 Alpha virt. eigenvalues --    3.85917   3.86454   3.92221   3.92989   3.95025
 Alpha virt. eigenvalues --    3.96999   4.00909   4.03061   4.08279   4.11894
 Alpha virt. eigenvalues --    4.13719   4.14907   4.17656   4.21707   4.23236
 Alpha virt. eigenvalues --    4.24625   4.26813   4.29105   4.30366   4.31457
 Alpha virt. eigenvalues --    4.33650   4.34477   4.34853   4.37827   4.40925
 Alpha virt. eigenvalues --    4.46459   4.47181   4.52175   4.53395   4.55914
 Alpha virt. eigenvalues --    4.57284   4.67729   4.68135   4.74628   4.76670
 Alpha virt. eigenvalues --    4.77836   4.78890   4.79939   4.83385   4.85626
 Alpha virt. eigenvalues --    4.87987   4.91134   4.92069   4.94055   4.96625
 Alpha virt. eigenvalues --    4.98639   5.01120   5.05111   5.07526   5.15620
 Alpha virt. eigenvalues --    5.16404   5.19949   5.21770   5.24910   5.26319
 Alpha virt. eigenvalues --    5.26817   5.30951   5.34857   5.38941   5.42189
 Alpha virt. eigenvalues --    5.43844   5.46896   5.50671   5.53909   5.57416
 Alpha virt. eigenvalues --    5.59008   5.66925   5.72873   5.73216   5.76369
 Alpha virt. eigenvalues --    5.78940   5.81824   5.99080   6.10249   6.12352
 Alpha virt. eigenvalues --    6.18283   6.46001   6.46835   6.54178   6.60619
 Alpha virt. eigenvalues --    6.62617   6.64941   6.95781   6.96940   7.00184
 Alpha virt. eigenvalues --    7.14044   7.33779   7.47708   7.58416   7.80558
 Alpha virt. eigenvalues --    7.83849  22.67756  22.73386  23.00236  23.02342
 Alpha virt. eigenvalues --   23.10670  23.26485  23.60124  32.49357  32.89433
 Alpha virt. eigenvalues --   44.48646  44.67827
          Condensed to atoms (all electrons):
              1          2          3          4          5          6
     1  C    6.062618   0.181880  -0.156428  -0.055011   0.005522   0.326250
     2  C    0.181880   6.208178   0.276484  -0.116716   0.154902  -0.618265
     3  C   -0.156428   0.276484   6.113978   0.302078  -0.295960   0.053984
     4  C   -0.055011  -0.116716   0.302078   6.607922  -0.315439  -0.407358
     5  C    0.005522   0.154902  -0.295960  -0.315439   6.898790  -0.369168
     6  C    0.326250  -0.618265   0.053984  -0.407358  -0.369168   7.603240
     7  H    0.291412  -0.038382   0.002555   0.002373   0.026696  -0.163005
     8  H   -0.000211  -0.092224   0.326336  -0.056995   0.010558  -0.003382
     9  H   -0.007608   0.022787  -0.059370   0.489138  -0.256203  -0.018588
    10  N   -0.223586   0.558028  -0.237335  -0.007051   0.020750  -0.012741
    11  O    0.029023  -0.105257   0.044849  -0.002840  -0.006133  -0.007117
    12  O    0.005387  -0.074331   0.023322   0.000096  -0.008797   0.008358
    13  N   -0.000735   0.000227  -0.005958  -0.085504   0.143712   0.013761
    14  H   -0.001445   0.002995  -0.004510   0.039429  -0.107447   0.003906
    15  H    0.000017   0.001700  -0.001999  -0.008258   0.009912  -0.065200
    16  C   -0.199109  -0.032010  -0.012563   0.062073  -0.321786  -0.726116
    17  H   -0.030335  -0.013175   0.001265   0.002678  -0.018769  -0.009587
    18  H    0.006391   0.002149   0.000475  -0.000847   0.003428  -0.037000
    19  H    0.012690   0.001927   0.001255  -0.000856   0.013045  -0.044296
              7          8          9         10         11         12
     1  C    0.291412  -0.000211  -0.007608  -0.223586   0.029023   0.005387
     2  C   -0.038382  -0.092224   0.022787   0.558028  -0.105257  -0.074331
     3  C    0.002555   0.326336  -0.059370  -0.237335   0.044849   0.023322
     4  C    0.002373  -0.056995   0.489138  -0.007051  -0.002840   0.000096
     5  C    0.026696   0.010558  -0.256203   0.020750  -0.006133  -0.008797
     6  C   -0.163005  -0.003382  -0.018588  -0.012741  -0.007117   0.008358
     7  H    0.431657   0.001232  -0.000404   0.007401  -0.003129  -0.007982
     8  H    0.001232   0.382584  -0.008604   0.004032  -0.006368  -0.002114
     9  H   -0.000404  -0.008604   0.551022  -0.000226  -0.000159   0.000005
    10  N    0.007401   0.004032  -0.000226   5.821941   0.081894   0.093361
    11  O   -0.003129  -0.006368  -0.000159   0.081894   8.674469  -0.108462
    12  O   -0.007982  -0.002114   0.000005   0.093361  -0.108462   8.667617
    13  N    0.000679   0.000312   0.006550  -0.000467   0.000174   0.000151
    14  H   -0.000155  -0.000797   0.023903  -0.000024   0.000011  -0.000007
    15  H   -0.000391   0.000011  -0.002040  -0.000011   0.000003   0.000049
    16  C    0.010348  -0.000645   0.000954   0.001210   0.000642  -0.004943
    17  H   -0.003997  -0.000039  -0.000141  -0.001050   0.000074   0.001372
    18  H   -0.001648  -0.000024   0.000529   0.000265  -0.000029  -0.000124
    19  H    0.000783   0.000038   0.000067   0.000236  -0.000023  -0.000114
             13         14         15         16         17         18
     1  C   -0.000735  -0.001445   0.000017  -0.199109  -0.030335   0.006391
     2  C    0.000227   0.002995   0.001700  -0.032010  -0.013175   0.002149
     3  C   -0.005958  -0.004510  -0.001999  -0.012563   0.001265   0.000475
     4  C   -0.085504   0.039429  -0.008258   0.062073   0.002678  -0.000847
     5  C    0.143712  -0.107447   0.009912  -0.321786  -0.018769   0.003428
     6  C    0.013761   0.003906  -0.065200  -0.726116  -0.009587  -0.037000
     7  H    0.000679  -0.000155  -0.000391   0.010348  -0.003997  -0.001648
     8  H    0.000312  -0.000797   0.000011  -0.000645  -0.000039  -0.000024
     9  H    0.006550   0.023903  -0.002040   0.000954  -0.000141   0.000529
    10  N   -0.000467  -0.000024  -0.000011   0.001210  -0.001050   0.000265
    11  O    0.000174   0.000011   0.000003   0.000642   0.000074  -0.000029
    12  O    0.000151  -0.000007   0.000049  -0.004943   0.001372  -0.000124
    13  N    6.588542   0.343443   0.380616   0.009764   0.002950  -0.007740
    14  H    0.343443   0.545593  -0.041999   0.009825   0.000264   0.001215
    15  H    0.380616  -0.041999   0.498874   0.026947   0.001254   0.002597
    16  C    0.009764   0.009825   0.026947   7.517479   0.391412   0.343146
    17  H    0.002950   0.000264   0.001254   0.391412   0.312781   0.015036
    18  H   -0.007740   0.001215   0.002597   0.343146   0.015036   0.300450
    19  H   -0.004569  -0.000657  -0.002940   0.334208   0.013620   0.009796
             19
     1  C    0.012690
     2  C    0.001927
     3  C    0.001255
     4  C   -0.000856
     5  C    0.013045
     6  C   -0.044296
     7  H    0.000783
     8  H    0.000038
     9  H    0.000067
    10  N    0.000236
    11  O   -0.000023
    12  O   -0.000114
    13  N   -0.004569
    14  H   -0.000657
    15  H   -0.002940
    16  C    0.334208
    17  H    0.013620
    18  H    0.009796
    19  H    0.305955
 Mulliken atomic charges:
              1
     1  C   -0.246722
     2  C   -0.320895
     3  C   -0.372459
     4  C   -0.448913
     5  C    0.412386
     6  C    0.472323
     7  H    0.443956
     8  H    0.446301
     9  H    0.258388
    10  N    0.893370
    11  O   -0.591622
    12  O   -0.592845
    13  N   -0.385907
    14  H    0.186457
    15  H    0.200858
    16  C   -1.410835
    17  H    0.334388
    18  H    0.361937
    19  H    0.359833
 Sum of Mulliken atomic charges =   0.00000
 Mulliken charges with hydrogens summed into heavy atoms:
              1
     1  C    0.197234
     2  C   -0.320895
     3  C    0.073842
     4  C   -0.190525
     5  C    0.412386
     6  C    0.472323
    10  N    0.893370
    11  O   -0.591622
    12  O   -0.592845
    13  N    0.001408
    16  C   -0.354677
 Sum of Mulliken charges with hydrogens summed into heavy atoms =   0.00000
 Electronic spatial extent (au):  <R**2>=           1882.1603
 Charge=              0.0000 electrons
 Dipole moment (field-independent basis, Debye):
    X=             -7.1066    Y=             -0.8614    Z=              0.6145  Tot=              7.1849
 Quadrupole moment (field-independent basis, Debye-Ang):
   XX=            -68.8147   YY=            -59.0230   ZZ=            -66.3294
   XY=             -0.1223   XZ=             -2.6516   YZ=             -0.6861
 Traceless Quadrupole moment (field-independent basis, Debye-Ang):
   XX=             -4.0924   YY=              5.6994   ZZ=             -1.6071
   XY=             -0.1223   XZ=             -2.6516   YZ=             -0.6861
 Octapole moment (field-independent basis, Debye-Ang**2):
  XXX=            -87.4377  YYY=            -10.4865  ZZZ=              0.4465  XYY=            -15.0031
  XXY=            -10.2268  XXZ=             10.0339  XZZ=             10.7610  YZZ=              3.0575
  YYZ=              0.7640  XYZ=              2.2760
 Hexadecapole moment (field-independent basis, Debye-Ang**3):
 XXXX=          -1745.0478 YYYY=           -576.5690 ZZZZ=            -77.3884 XXXY=             32.4887
 XXXZ=            -39.6089 YYYX=             23.1382 YYYZ=             -2.1438 ZZZX=             -1.7128
 ZZZY=             -0.3821 XXYY=           -380.6969 XXZZ=           -302.3471 YYZZ=           -124.3466
 XXYZ=             -9.0541 YYXZ=             -3.7868 ZZXY=             -1.6385
 N-N= 5.927527034869D+02 E-N=-2.426241055955D+03  KE= 5.292915585836D+02
 Calling FoFJK, ICntrl=      2127 FMM=F ISym2X=0 I1Cent= 0 IOpClX= 0 NMat=1 NMatS=1 NMatT=0.
 FoFJK:  IHMeth= 1 ICntrl=  2127 DoSepK=T KAlg= 1 I1Cent= 0 FoldK=F
 ***** Axes restored to original set *****
 -------------------------------------------------------------------
 Center     Atomic                   Forces (Hartrees/Bohr)
 Number     Number              X              Y              Z
 -------------------------------------------------------------------
      1        6           0.000022333   -0.000014691   -0.000103609
      2        6          -0.000047887    0.000052316   -0.000078816
      3        6           0.000087572   -0.000009612   -0.000043430
      4        6           0.000067930   -0.000016959    0.000005165
      5        6          -0.000043723   -0.000025785   -0.000130462
      6        6          -0.000059347    0.000093938   -0.000022003
      7        1           0.000036709    0.000110691    0.000102335
      8        1          -0.000078327    0.000050778   -0.000162280
      9        1          -0.000054678   -0.000097275   -0.000149593
     10        7          -0.000085196    0.000053806   -0.000147388
     11        8          -0.000007966    0.000267526    0.000092580
     12        8          -0.000021708    0.000088700    0.000137529
     13        7          -0.000084588   -0.000186691   -0.000025060
     14        1           0.000020037   -0.000162843   -0.000147669
     15        1           0.000103861   -0.000086605    0.000121055
     16        6          -0.000047262   -0.000088088    0.000212750
     17        1           0.000079624    0.000075236    0.000141686
     18        1          -0.000032075   -0.000070608    0.000112126
     19        1           0.000144692   -0.000033835    0.000085083
 -------------------------------------------------------------------
 Cartesian Forces:  Max     0.000267526 RMS     0.000099342

 GradGradGradGradGradGradGradGradGradGradGradGradGradGradGradGradGradGrad
 Berny optimization.
 Internal  Forces:  Max     0.000564589 RMS     0.000172719
 Search for a local minimum.
 Step number   1 out of a maximum of   97
 All quantities printed in internal units (Hartrees-Bohrs-Radians)
 Mixed Optimization -- En-DIIS/RFO-DIIS
 Second derivative matrix not updated -- first step.
     Eigenvalues ---    0.00790   0.00967   0.00967   0.01620   0.01904
     Eigenvalues ---    0.02059   0.02063   0.02129   0.02268   0.02307
     Eigenvalues ---    0.02326   0.02344   0.02379   0.03179   0.07150
     Eigenvalues ---    0.07224   0.16000   0.16000   0.16000   0.16000
     Eigenvalues ---    0.16000   0.16000   0.16000   0.16000   0.22371
     Eigenvalues ---    0.23492   0.24597   0.24984   0.25000   0.25000
     Eigenvalues ---    0.25000   0.25000   0.32570   0.34370   0.34504
     Eigenvalues ---    0.35109   0.35704   0.35999   0.36132   0.37621
     Eigenvalues ---    0.42197   0.43487   0.46752   0.46922   0.47049
     Eigenvalues ---    0.47428   0.48798   0.49791   0.50549   0.97150
     Eigenvalues ---    0.971831000.000001000.000001000.000001000.00000
     Eigenvalues --- 1000.000001000.000001000.000001000.000001000.00000
     Eigenvalues --- 1000.000001000.000001000.000001000.000001000.00000
     Eigenvalues --- 1000.000001000.000001000.000001000.000001000.00000
     Eigenvalues --- 1000.000001000.000001000.000001000.000001000.00000
     Eigenvalues --- 1000.000001000.000001000.000001000.000001000.00000
     Eigenvalues --- 1000.000001000.000001000.000001000.000001000.00000
     Eigenvalues --- 1000.000001000.00000
 RFO step:  Lambda=-9.42690735D-06 EMin= 7.90113297D-03
 Linear search not attempted -- first point.
 Iteration  1 RMS(Cart)=  0.00291833 RMS(Int)=  0.00000445
 Iteration  2 RMS(Cart)=  0.00000569 RMS(Int)=  0.00000034
 Iteration  3 RMS(Cart)=  0.00000000 RMS(Int)=  0.00000034
 Variable       Old X    -DE/DX   Delta X   Delta X   Delta X     New X
                                 (Linear)    (Quad)   (Total)
    R1        2.61566   0.00018   0.00000   0.00035   0.00035   2.61602
    R2        2.60528   0.00024   0.00000   0.00047   0.00047   2.60575
    R3        2.04083   0.00015   0.00000   0.00042   0.00042   2.04125
    R4        2.61199   0.00027   0.00000   0.00054   0.00054   2.61254
    R5        2.74920   0.00042   0.00000   0.00112   0.00112   2.75032
    R6        2.59770   0.00038   0.00000   0.00076   0.00076   2.59846
    R7        2.03875   0.00018   0.00000   0.00051   0.00051   2.03926
    R8        2.63998   0.00032   0.00000   0.00072   0.00072   2.64071
    R9        2.04547   0.00018   0.00000   0.00051   0.00051   2.04598
   R10        2.65813   0.00046   0.00000   0.00105   0.00105   2.65918
   R11        2.59315   0.00044   0.00000   0.00086   0.00086   2.59401
   R12        2.83114   0.00056   0.00000   0.00173   0.00173   2.83287
   R13        2.29788   0.00003   0.00000   0.00003   0.00003   2.29791
   R14        2.29802   0.00016   0.00000   0.00016   0.00016   2.29819
   R15        1.89806   0.00021   0.00000   0.00045   0.00045   1.89850
   R16        1.89666   0.00018   0.00000   0.00038   0.00038   1.89704
   R17        2.05498   0.00016   0.00000   0.00045   0.00045   2.05544
   R18        2.06488   0.00010   0.00000   0.00029   0.00029   2.06518
   R19        2.06710   0.00014   0.00000   0.00041   0.00041   2.06750
    A1        2.10531   0.00026   0.00000   0.00106   0.00106   2.10637
    A2        2.07501  -0.00015   0.00000  -0.00068  -0.00068   2.07433
    A3        2.10287  -0.00011   0.00000  -0.00038  -0.00038   2.10249
    A4        2.11515  -0.00014   0.00000  -0.00065  -0.00065   2.11450
    A5        2.08415  -0.00036   0.00000  -0.00138  -0.00138   2.08277
    A6        2.08389   0.00050   0.00000   0.00203   0.00203   2.08592
    A7        2.07407  -0.00001   0.00000  -0.00006  -0.00006   2.07401
    A8        2.08896   0.00003   0.00000   0.00022   0.00022   2.08917
    A9        2.12015  -0.00002   0.00000  -0.00015  -0.00015   2.12000
   A10        2.10996   0.00012   0.00000   0.00059   0.00059   2.11055
   A11        2.09112  -0.00007   0.00000  -0.00038  -0.00038   2.09074
   A12        2.08210  -0.00005   0.00000  -0.00021  -0.00021   2.08190
   A13        2.09100  -0.00013   0.00000  -0.00050  -0.00050   2.09050
   A14        2.09446   0.00002   0.00000   0.00005   0.00005   2.09451
   A15        2.09718   0.00012   0.00000   0.00045   0.00045   2.09763
   A16        2.07086  -0.00010   0.00000  -0.00043  -0.00043   2.07044
   A17        2.11570  -0.00021   0.00000  -0.00081  -0.00081   2.11489
   A18        2.09661   0.00030   0.00000   0.00124   0.00124   2.09785
   A19        2.05709   0.00042   0.00000   0.00169   0.00169   2.05878
   A20        2.05981  -0.00020   0.00000  -0.00078  -0.00079   2.05902
   A21        2.16628  -0.00023   0.00000  -0.00090  -0.00090   2.16538
   A22        2.05897   0.00008   0.00000   0.00059   0.00059   2.05957
   A23        2.07446  -0.00001   0.00000   0.00003   0.00003   2.07449
   A24        2.00868  -0.00006   0.00000  -0.00026  -0.00026   2.00842
   A25        1.93508   0.00003   0.00000   0.00003   0.00003   1.93511
   A26        1.94394   0.00011   0.00000   0.00089   0.00089   1.94483
   A27        1.94976   0.00008   0.00000   0.00046   0.00046   1.95021
   A28        1.88216  -0.00006   0.00000  -0.00033  -0.00033   1.88182
   A29        1.87457  -0.00011   0.00000  -0.00104  -0.00104   1.87354
   A30        1.87507  -0.00006   0.00000  -0.00010  -0.00010   1.87497
    D1        0.00178  -0.00004   0.00000  -0.00184  -0.00184  -0.00007
    D2       -3.13855  -0.00006   0.00000  -0.00264  -0.00264  -3.14119
    D3       -3.13866  -0.00003   0.00000  -0.00106  -0.00106  -3.13972
    D4        0.00421  -0.00004   0.00000  -0.00186  -0.00186   0.00234
    D5        0.00216   0.00001   0.00000   0.00051   0.00051   0.00266
    D6       -3.13534   0.00001   0.00000   0.00045   0.00045  -3.13489
    D7       -3.14061  -0.00001   0.00000  -0.00029  -0.00029  -3.14090
    D8        0.00507  -0.00001   0.00000  -0.00035  -0.00035   0.00473
    D9       -0.00338   0.00004   0.00000   0.00169   0.00169  -0.00169
   D10        3.14145  -0.00001   0.00000  -0.00036  -0.00036   3.14108
   D11        3.13694   0.00006   0.00000   0.00249   0.00249   3.13943
   D12       -0.00142   0.00001   0.00000   0.00043   0.00043  -0.00098
   D13       -3.13561   0.00000   0.00000  -0.00086  -0.00086  -3.13647
   D14        0.00665  -0.00003   0.00000  -0.00383  -0.00383   0.00282
   D15        0.00723  -0.00002   0.00000  -0.00165  -0.00165   0.00558
   D16       -3.13370  -0.00005   0.00000  -0.00461  -0.00461  -3.13831
   D17        0.00102  -0.00001   0.00000  -0.00024  -0.00024   0.00079
   D18        3.14108  -0.00004   0.00000  -0.00181  -0.00181   3.13927
   D19        3.13932   0.00004   0.00000   0.00186   0.00186   3.14118
   D20       -0.00381   0.00001   0.00000   0.00028   0.00028  -0.00352
   D21        0.00288  -0.00002   0.00000  -0.00106  -0.00106   0.00182
   D22        3.10925  -0.00002   0.00000  -0.00109  -0.00109   3.10816
   D23       -3.13718   0.00001   0.00000   0.00050   0.00050  -3.13668
   D24       -0.03082   0.00001   0.00000   0.00048   0.00048  -0.03034
   D25       -0.00444   0.00002   0.00000   0.00092   0.00092  -0.00352
   D26        3.13311   0.00002   0.00000   0.00097   0.00097   3.13408
   D27       -3.11075   0.00002   0.00000   0.00095   0.00095  -3.10979
   D28        0.02679   0.00002   0.00000   0.00101   0.00101   0.02780
   D29        0.27336  -0.00002   0.00000  -0.00072  -0.00072   0.27264
   D30        2.84295   0.00000   0.00000  -0.00013  -0.00013   2.84282
   D31       -2.90358  -0.00002   0.00000  -0.00077  -0.00077  -2.90435
   D32       -0.33399   0.00000   0.00000  -0.00018  -0.00018  -0.33417
   D33        0.02609  -0.00004   0.00000  -0.00156  -0.00156   0.02453
   D34        2.12207  -0.00002   0.00000  -0.00137  -0.00137   2.12070
   D35       -2.06417   0.00003   0.00000  -0.00057  -0.00057  -2.06475
   D36       -3.11135  -0.00004   0.00000  -0.00162  -0.00162  -3.11297
   D37       -1.01537  -0.00002   0.00000  -0.00143  -0.00143  -1.01680
   D38        1.08157   0.00003   0.00000  -0.00063  -0.00063   1.08094
         Item               Value     Threshold  Converged?
 Maximum Force            0.000565     0.000015     NO 
 RMS     Force            0.000173     0.000010     NO 
 Maximum Displacement     0.010947     0.000060     NO 
 RMS     Displacement     0.002919     0.000040     NO 
 Predicted change in Energy=-4.713510D-06
 GradGradGradGradGradGradGradGradGradGradGradGradGradGradGradGradGradGrad

                          Input orientation:                          
 ---------------------------------------------------------------------
 Center     Atomic      Atomic             Coordinates (Angstroms)
 Number     Number       Type             X           Y           Z
 ---------------------------------------------------------------------
      1          6           0       -0.014245    0.973508    0.677852
      2          6           0       -0.403258    1.555672   -0.516360
      3          6           0       -0.558156    0.799716   -1.663457
      4          6           0       -0.316546   -0.552632   -1.604050
      5          6           0        0.078003   -1.159853   -0.408916
      6          6           0        0.229605   -0.381548    0.753581
      7          1           0        0.093678    1.599055    1.551832
      8          1           0       -0.862828    1.277714   -2.581724
      9          1           0       -0.435177   -1.159796   -2.492581
     10          7           0       -0.652454    2.988825   -0.563055
     11          8           0       -0.998210    3.473125   -1.623512
     12          8           0       -0.504353    3.627259    0.461387
     13          7           0        0.276126   -2.517341   -0.361364
     14          1           0        0.366021   -3.011700   -1.231330
     15          1           0        0.798237   -2.904293    0.403765
     16          6           0        0.643101   -1.024730    2.043004
     17          1           0        0.685617   -0.291792    2.845539
     18          1           0       -0.058552   -1.807501    2.341775
     19          1           0        1.633392   -1.483687    1.967615
 ---------------------------------------------------------------------
                    Distance matrix (angstroms):
                    1          2          3          4          5
     1  C    0.000000
     2  C    1.384336   0.000000
     3  C    2.409931   1.382495   0.000000
     4  C    2.761804   2.373927   1.375045   0.000000
     5  C    2.395998   2.759933   2.412152   1.397401   0.000000
     6  C    1.378904   2.401268   2.803217   2.426103   1.407176
     7  H    1.080184   2.127498   3.376672   3.841566   3.384723
     8  H    3.381932   2.134055   1.079130   2.145795   3.398233
     9  H    3.844452   3.358605   2.131257   1.082686   2.145929
    10  N    2.451257   1.455406   2.451932   3.706538   4.215312
    11  O    3.537308   2.292680   2.709679   4.083107   4.908968
    12  O    2.707297   2.292964   3.537352   4.666132   4.900307
    13  N    3.653808   4.132193   3.659828   2.399085   1.372694
    14  H    4.435252   4.686561   3.945596   2.579114   2.046620
    15  H    3.971472   4.709724   4.453413   3.286999   2.054813
    16  C    2.507728   3.782021   4.302263   3.800631   2.519822
    17  H    2.605698   3.987623   4.803062   4.568502   3.422602
    18  H    3.241082   4.427040   4.805108   4.148588   2.829204
    19  H    3.227384   4.422191   4.816793   4.174435   2.858672
                    6          7          8          9         10
     6  C    0.000000
     7  H    2.139735   0.000000
     8  H    3.882115   4.254932   0.000000
     9  H    3.403700   4.924248   2.476346   0.000000
    10  N    3.724375   2.638356   2.654652   4.580538   0.000000
    11  O    4.692186   3.845408   2.399235   4.747235   1.216003
    12  O    4.085903   2.379143   3.861268   5.625532   1.216147
    13  N    2.409747   4.542942   4.541988   2.625065   5.587558
    14  H    3.297906   5.392515   4.661835   2.379542   6.122922
    15  H    2.609589   4.700490   5.400135   3.599082   6.145574
    16  C    1.499090   2.725319   5.381187   4.663952   4.957684
    17  H    2.142963   2.366300   5.858004   5.523145   4.916442
    18  H    2.153772   3.500258   5.865684   4.892071   5.638749
    19  H    2.158519   3.470864   5.878174   4.927193   5.624300
                   11         12         13         14         15
    11  O    0.000000
    12  O    2.148128   0.000000
    13  N    6.253210   6.248374   0.000000
    14  H    6.638365   6.906418   1.004645   0.000000
    15  H    6.928819   6.660423   1.003869   1.694662   0.000000
    16  C    6.030584   5.045708   2.853689   3.840063   2.498785
    17  H    6.081307   4.739111   3.924918   4.911303   3.577723
    18  H    6.670192   5.768120   2.814754   3.794395   2.385985
    19  H    6.662695   5.741119   2.886997   3.764877   2.271835
                   16         17         18         19
    16  C    0.000000
    17  H    1.087690   0.000000
    18  H    1.092846   1.762084   0.000000
    19  H    1.094075   1.757738   1.762818   0.000000
 Stoichiometry    C7H8N2O2
 Framework group  C1[X(C7H8N2O2)]
 Deg. of freedom    51
 Full point group                 C1      NOp   1
 Largest Abelian subgroup         C1      NOp   1
 Largest concise Abelian subgroup C1      NOp   1
                         Standard orientation:                         
 ---------------------------------------------------------------------
 Center     Atomic      Atomic             Coordinates (Angstroms)
 Number     Number       Type             X           Y           Z
 ---------------------------------------------------------------------
      1          6           0        0.073477    0.955767    0.000796
      2          6           0        0.954984   -0.111627   -0.000017
      3          6           0        0.498129   -1.416451   -0.003428
      4          6           0       -0.857917   -1.644242   -0.004001
      5          6           0       -1.764737   -0.581037   -0.002140
      6          6           0       -1.288951    0.743263   -0.001867
      7          1           0        0.471089    1.960108    0.001723
      8          1           0        1.206140   -2.230847   -0.004472
      9          1           0       -1.232737   -2.659966   -0.008837
     10          7           0        2.387306    0.146540    0.003370
     11          8           0        3.138919   -0.809337   -0.002929
     12          8           0        2.758172    1.304741    0.009855
     13          7           0       -3.114133   -0.829615   -0.042483
     14          1           0       -3.428757   -1.760544    0.166548
     15          1           0       -3.749695   -0.097329    0.217461
     16          6           0       -2.253329    1.890951   -0.009610
     17          1           0       -1.724728    2.841149   -0.037418
     18          1           0       -2.914914    1.850721   -0.878517
     19          1           0       -2.885275    1.895262    0.883489
 ---------------------------------------------------------------------
 Rotational constants (GHZ):      2.4684364      0.7371114      0.5697464
 Basis read from rwf:  (5D, 7F)
 There are   485 symmetry adapted basis functions of A   symmetry.
 Integral buffers will be    131072 words long.
 Raffenetti 2 integral format.
 Two-electron integral symmetry is turned on.
   485 basis functions,   732 primitive gaussians,   551 cartesian basis functions
    40 alpha electrons       40 beta electrons
       nuclear repulsion energy       592.5629145448 Hartrees.
 NAtoms=   19 NActive=   19 NUniq=   19 SFac= 7.50D-01 NAtFMM=   80 NAOKFM=F Big=F
 One-electron integrals computed using PRISM.
 NBasis=   485 RedAO= T  NBF=   485
 NBsUse=   482 1.00D-06 NBFU=   482
 Initial guess read from the read-write file.
 B after Tr=     0.000000    0.000000    0.000000
         Rot=    1.000000    0.000000    0.000000    0.000000 Ang=   0.00 deg.
 Initial guess orbital symmetries:
       Occupied  (A) (A) (A) (A) (A) (A) (A) (A) (A) (A) (A) (A)
                 (A) (A) (A) (A) (A) (A) (A) (A) (A) (A) (A) (A)
                 (A) (A) (A) (A) (A) (A) (A) (A) (A) (A) (A) (A)
                 (A) (A) (A) (A)
       Virtual   (A) (A) (A) (A) (A) (A) (A) (A) (A) (A) (A) (A)
                 (A) (A) (A) (A) (A) (A) (A) (A) (A) (A) (A) (A)
                 (A) (A) (A) (A) (A) (A) (A) (A) (A) (A) (A) (A)
                 (A) (A) (A) (A) (A) (A) (A) (A) (A) (A) (A) (A)
                 (A) (A) (A) (A) (A) (A) (A) (A) (A) (A) (A) (A)
                 (A) (A) (A) (A) (A) (A) (A) (A) (A) (A) (A) (A)
                 (A) (A) (A) (A) (A) (A) (A) (A) (A) (A) (A) (A)
                 (A) (A) (A) (A) (A) (A) (A) (A) (A) (A) (A) (A)
                 (A) (A) (A) (A) (A) (A) (A) (A) (A) (A) (A) (A)
                 (A) (A) (A) (A) (A) (A) (A) (A) (A) (A) (A) (A)
                 (A) (A) (A) (A) (A) (A) (A) (A) (A) (A) (A) (A)
                 (A) (A) (A) (A) (A) (A) (A) (A) (A) (A) (A) (A)
                 (A) (A) (A) (A) (A) (A) (A) (A) (A) (A) (A) (A)
                 (A) (A) (A) (A) (A) (A) (A) (A) (A) (A) (A) (A)
                 (A) (A) (A) (A) (A) (A) (A) (A) (A) (A) (A) (A)
                 (A) (A) (A) (A) (A) (A) (A) (A) (A) (A) (A) (A)
                 (A) (A) (A) (A) (A) (A) (A) (A) (A) (A) (A) (A)
                 (A) (A) (A) (A) (A) (A) (A) (A) (A) (A) (A) (A)
                 (A) (A) (A) (A) (A) (A) (A) (A) (A) (A) (A) (A)
                 (A) (A) (A) (A) (A) (A) (A) (A) (A) (A) (A) (A)
                 (A) (A) (A) (A) (A) (A) (A) (A) (A) (A) (A) (A)
                 (A) (A) (A) (A) (A) (A) (A) (A) (A) (A) (A) (A)
                 (A) (A) (A) (A) (A) (A) (A) (A) (A) (A) (A) (A)
                 (A) (A) (A) (A) (A) (A) (A) (A) (A) (A) (A) (A)
                 (A) (A) (A) (A) (A) (A) (A) (A) (A) (A) (A) (A)
                 (A) (A) (A) (A) (A) (A) (A) (A) (A) (A) (A) (A)
                 (A) (A) (A) (A) (A) (A) (A) (A) (A) (A) (A) (A)
                 (A) (A) (A) (A) (A) (A) (A) (A) (A) (A) (A) (A)
                 (A) (A) (A) (A) (A) (A) (A) (A) (A) (A) (A) (A)
                 (A) (A) (A) (A) (A) (A) (A) (A) (A) (A) (A) (A)
                 (A) (A) (A) (A) (A) (A) (A) (A) (A) (A) (A) (A)
                 (A) (A) (A) (A) (A) (A) (A) (A) (A) (A) (A) (A)
                 (A) (A) (A) (A) (A) (A) (A) (A) (A) (A) (A) (A)
                 (A) (A) (A) (A) (A) (A) (A) (A) (A) (A) (A) (A)
                 (A) (A) (A) (A) (A) (A) (A) (A) (A) (A) (A) (A)
                 (A) (A) (A) (A) (A) (A) (A) (A) (A) (A) (A) (A)
                 (A) (A) (A) (A) (A) (A) (A) (A) (A) (A)
 FoFJK:  IHMeth= 1 ICntrl=     0 DoSepK=T KAlg= 1 I1Cent= 0 FoldK=F
 Gradient too large for Newton-Raphson -- use scaled steepest descent instead.
 FoFJK:  IHMeth= 1 ICntrl=     0 DoSepK=T KAlg= 1 I1Cent= 0 FoldK=F
 FoFJK:  IHMeth= 1 ICntrl=     0 DoSepK=T KAlg= 1 I1Cent= 0 FoldK=F
 FoFJK:  IHMeth= 1 ICntrl=     0 DoSepK=T KAlg= 1 I1Cent= 0 FoldK=F
 FoFJK:  IHMeth= 1 ICntrl=     0 DoSepK=T KAlg= 1 I1Cent= 0 FoldK=F
 FoFJK:  IHMeth= 1 ICntrl=     0 DoSepK=T KAlg= 1 I1Cent= 0 FoldK=F
 FoFJK:  IHMeth= 1 ICntrl=     0 DoSepK=T KAlg= 1 I1Cent= 0 FoldK=F
 FoFJK:  IHMeth= 1 ICntrl=     0 DoSepK=T KAlg= 1 I1Cent= 0 FoldK=F
 LinEq1:  Iter=  0 NonCon=     1 RMS=7.35D-06 Max=4.07D-04
 AX will form     1 AO Fock derivatives at one time.
 FoFJK:  IHMeth= 1 ICntrl=     0 DoSepK=T KAlg= 1 I1Cent= 0 FoldK=F
 LinEq1:  Iter=  1 NonCon=     1 RMS=7.95D-06 Max=4.97D-04
 FoFJK:  IHMeth= 1 ICntrl=     0 DoSepK=T KAlg= 1 I1Cent= 0 FoldK=F
 LinEq1:  Iter=  2 NonCon=     1 RMS=4.90D-06 Max=2.04D-04
 FoFJK:  IHMeth= 1 ICntrl=     0 DoSepK=T KAlg= 1 I1Cent= 0 FoldK=F
 LinEq1:  Iter=  3 NonCon=     1 RMS=2.52D-06 Max=1.04D-04
 FoFJK:  IHMeth= 1 ICntrl=     0 DoSepK=T KAlg= 1 I1Cent= 0 FoldK=F
 LinEq1:  Iter=  4 NonCon=     1 RMS=1.55D-06 Max=5.29D-05
 FoFJK:  IHMeth= 1 ICntrl=     0 DoSepK=T KAlg= 1 I1Cent= 0 FoldK=F
 LinEq1:  Iter=  5 NonCon=     1 RMS=6.44D-07 Max=1.83D-05
 FoFJK:  IHMeth= 1 ICntrl=     0 DoSepK=T KAlg= 1 I1Cent= 0 FoldK=F
 LinEq1:  Iter=  6 NonCon=     1 RMS=2.67D-07 Max=1.24D-05
 FoFJK:  IHMeth= 1 ICntrl=     0 DoSepK=T KAlg= 1 I1Cent= 0 FoldK=F
 LinEq1:  Iter=  7 NonCon=     1 RMS=1.74D-07 Max=7.15D-06
 FoFJK:  IHMeth= 1 ICntrl=     0 DoSepK=T KAlg= 1 I1Cent= 0 FoldK=F
 LinEq1:  Iter=  8 NonCon=     1 RMS=9.92D-08 Max=4.17D-06
 FoFJK:  IHMeth= 1 ICntrl=     0 DoSepK=T KAlg= 1 I1Cent= 0 FoldK=F
 LinEq1:  Iter=  9 NonCon=     1 RMS=6.00D-08 Max=2.90D-06
 FoFJK:  IHMeth= 1 ICntrl=     0 DoSepK=T KAlg= 1 I1Cent= 0 FoldK=F
 LinEq1:  Iter= 10 NonCon=     1 RMS=2.80D-08 Max=1.33D-06
 FoFJK:  IHMeth= 1 ICntrl=     0 DoSepK=T KAlg= 1 I1Cent= 0 FoldK=F
 LinEq1:  Iter= 11 NonCon=     1 RMS=1.67D-08 Max=6.03D-07
 FoFJK:  IHMeth= 1 ICntrl=     0 DoSepK=T KAlg= 1 I1Cent= 0 FoldK=F
 LinEq1:  Iter= 12 NonCon=     1 RMS=6.59D-09 Max=2.14D-07
 FoFJK:  IHMeth= 1 ICntrl=     0 DoSepK=T KAlg= 1 I1Cent= 0 FoldK=F
 LinEq1:  Iter= 13 NonCon=     0 RMS=2.90D-09 Max=8.67D-08
 Linear equations converged to 1.880D-08 1.880D-07 after    13 iterations.
 FoFJK:  IHMeth= 1 ICntrl=     0 DoSepK=T KAlg= 1 I1Cent= 0 FoldK=F
 FoFJK:  IHMeth= 1 ICntrl=     0 DoSepK=T KAlg= 1 I1Cent= 0 FoldK=F
 FoFJK:  IHMeth= 1 ICntrl=     0 DoSepK=T KAlg= 1 I1Cent= 0 FoldK=F
 SCF Done:  E(RCAM-B3LYP) =  -531.395906767     a.u. after    3 cycles
            Convg  =    0.6639D-06                    24 Fock formations.
              S**2 =  0.0000                  -V/T =  2.0040
 Calling FoFJK, ICntrl=      2127 FMM=F ISym2X=0 I1Cent= 0 IOpClX= 0 NMat=1 NMatS=1 NMatT=0.
 FoFJK:  IHMeth= 1 ICntrl=  2127 DoSepK=T KAlg= 1 I1Cent= 0 FoldK=F
 ***** Axes restored to original set *****
 -------------------------------------------------------------------
 Center     Atomic                   Forces (Hartrees/Bohr)
 Number     Number              X              Y              Z
 -------------------------------------------------------------------
      1        6          -0.000006410   -0.000077637    0.000047137
      2        6           0.000132900   -0.000036426   -0.000137804
      3        6          -0.000041022    0.000089192    0.000088821
      4        6           0.000021232    0.000013266    0.000068724
      5        6           0.000001516    0.000035100   -0.000007799
      6        6           0.000005511   -0.000043758   -0.000046230
      7        1           0.000008779   -0.000007151   -0.000015624
      8        1           0.000005710    0.000001381   -0.000043076
      9        1           0.000006542    0.000010951   -0.000001994
     10        7          -0.000464258    0.000088460    0.000053674
     11        8           0.000202676   -0.000215885   -0.000043250
     12        8           0.000158442    0.000040572    0.000072619
     13        7          -0.000035440    0.000049237   -0.000002363
     14        1           0.000002164    0.000009444    0.000010049
     15        1           0.000011192    0.000018704    0.000016519
     16        6          -0.000014691   -0.000016679   -0.000025169
     17        1           0.000006021    0.000025391   -0.000016698
     18        1           0.000001568    0.000016601   -0.000007609
     19        1          -0.000002431   -0.000000762   -0.000009925
 -------------------------------------------------------------------
 Cartesian Forces:  Max     0.000464258 RMS     0.000087050

 GradGradGradGradGradGradGradGradGradGradGradGradGradGradGradGradGradGrad
 Berny optimization.
 Using GEDIIS/GDIIS optimizer.
 Internal  Forces:  Max     0.000307542 RMS     0.000065847
 Search for a local minimum.
 Step number   2 out of a maximum of   97
 All quantities printed in internal units (Hartrees-Bohrs-Radians)
 Mixed Optimization -- En-DIIS/RFO-DIIS
 Swaping is turned off.
 Update second derivatives using D2CorX and points    1    2
 DE= -3.43D-06 DEPred=-4.71D-06 R= 7.27D-01
 SS=  1.41D+00  RLast= 1.08D-02 DXNew= 5.0454D-01 3.2376D-02
 Trust test= 7.27D-01 RLast= 1.08D-02 DXMaxT set to 3.00D-01
     Eigenvalues ---    0.00756   0.00872   0.01158   0.01620   0.01905
     Eigenvalues ---    0.02060   0.02062   0.02121   0.02270   0.02312
     Eigenvalues ---    0.02333   0.02358   0.02418   0.03181   0.07114
     Eigenvalues ---    0.07212   0.15847   0.16000   0.16000   0.16000
     Eigenvalues ---    0.16000   0.16000   0.16000   0.16078   0.22082
     Eigenvalues ---    0.23339   0.24349   0.24603   0.24985   0.25000
     Eigenvalues ---    0.25000   0.29382   0.33293   0.34348   0.34535
     Eigenvalues ---    0.35051   0.35657   0.35953   0.36079   0.38028
     Eigenvalues ---    0.42590   0.43487   0.46783   0.46880   0.46992
     Eigenvalues ---    0.47845   0.49084   0.50082   0.51635   0.96961
     Eigenvalues ---    0.973851000.000001000.000001000.000001000.00000
     Eigenvalues --- 1000.000001000.000001000.000001000.000001000.00000
     Eigenvalues --- 1000.000001000.000001000.000001000.000001000.00000
     Eigenvalues --- 1000.000001000.000001000.000001000.000001000.00000
     Eigenvalues --- 1000.000001000.000001000.000001000.000001000.00000
     Eigenvalues --- 1000.000001000.000001000.000001000.000001000.00000
     Eigenvalues --- 1000.000001000.000001000.000001000.000001000.00000
     Eigenvalues --- 1000.000001000.00000
 En-DIIS/RFO-DIIS IScMMF=        0 using points:     2    1
 RFO step:  Lambda=-1.14173247D-06.
 DIIS coeffs:      0.78492      0.21508
 Iteration  1 RMS(Cart)=  0.00264535 RMS(Int)=  0.00002692
 Iteration  2 RMS(Cart)=  0.00002396 RMS(Int)=  0.00001607
 Iteration  3 RMS(Cart)=  0.00000000 RMS(Int)=  0.00001607
 Variable       Old X    -DE/DX   Delta X   Delta X   Delta X     New X
                                  (DIIS)     (GDIIS)  (Total)
    R1        2.61602   0.00001  -0.00008   0.00034   0.00026   2.61628
    R2        2.60575  -0.00007  -0.00010   0.00032   0.00022   2.60597
    R3        2.04125  -0.00002  -0.00009   0.00035   0.00026   2.04151
    R4        2.61254  -0.00012  -0.00012   0.00031   0.00019   2.61273
    R5        2.75032  -0.00007  -0.00024   0.00088   0.00064   2.75096
    R6        2.59846  -0.00005  -0.00016   0.00063   0.00046   2.59892
    R7        2.03926   0.00004  -0.00011   0.00054   0.00043   2.03969
    R8        2.64071  -0.00007  -0.00016   0.00054   0.00039   2.64109
    R9        2.04598  -0.00001  -0.00011   0.00046   0.00035   2.04633
   R10        2.65918  -0.00011  -0.00023   0.00076   0.00054   2.65971
   R11        2.59401  -0.00008  -0.00019   0.00067   0.00048   2.59450
   R12        2.83287  -0.00006  -0.00037   0.00143   0.00106   2.83393
   R13        2.29791  -0.00011  -0.00001  -0.00006  -0.00007   2.29785
   R14        2.29819   0.00010  -0.00004   0.00023   0.00020   2.29838
   R15        1.89850  -0.00001  -0.00010   0.00039   0.00029   1.89880
   R16        1.89704   0.00001  -0.00008   0.00037   0.00029   1.89732
   R17        2.05544   0.00000  -0.00010   0.00042   0.00033   2.05576
   R18        2.06518  -0.00001  -0.00006   0.00024   0.00017   2.06535
   R19        2.06750   0.00000  -0.00009   0.00037   0.00028   2.06778
    A1        2.10637  -0.00003  -0.00023   0.00087   0.00064   2.10701
    A2        2.07433   0.00002   0.00015  -0.00057  -0.00043   2.07390
    A3        2.10249   0.00002   0.00008  -0.00030  -0.00021   2.10227
    A4        2.11450   0.00003   0.00014  -0.00047  -0.00033   2.11417
    A5        2.08277   0.00012   0.00030  -0.00090  -0.00060   2.08217
    A6        2.08592  -0.00015  -0.00044   0.00137   0.00093   2.08685
    A7        2.07401  -0.00003   0.00001  -0.00015  -0.00014   2.07388
    A8        2.08917   0.00003  -0.00005   0.00034   0.00029   2.08946
    A9        2.12000  -0.00001   0.00003  -0.00019  -0.00016   2.11984
   A10        2.11055   0.00000  -0.00013   0.00054   0.00042   2.11097
   A11        2.09074  -0.00001   0.00008  -0.00039  -0.00031   2.09043
   A12        2.08190   0.00001   0.00005  -0.00015  -0.00011   2.08179
   A13        2.09050   0.00002   0.00011  -0.00040  -0.00029   2.09021
   A14        2.09451   0.00004  -0.00001   0.00017   0.00016   2.09467
   A15        2.09763  -0.00006  -0.00010   0.00023   0.00013   2.09777
   A16        2.07044   0.00000   0.00009  -0.00038  -0.00029   2.07014
   A17        2.11489  -0.00001   0.00017  -0.00078  -0.00061   2.11429
   A18        2.09785   0.00001  -0.00027   0.00117   0.00090   2.09875
   A19        2.05878  -0.00031  -0.00036   0.00060   0.00015   2.05893
   A20        2.05902   0.00011   0.00017  -0.00037  -0.00029   2.05873
   A21        2.16538   0.00020   0.00019  -0.00017  -0.00007   2.16531
   A22        2.05957   0.00001  -0.00013   0.00054   0.00041   2.05998
   A23        2.07449  -0.00003  -0.00001  -0.00018  -0.00018   2.07430
   A24        2.00842   0.00002   0.00006  -0.00021  -0.00015   2.00827
   A25        1.93511  -0.00004  -0.00001  -0.00017  -0.00018   1.93493
   A26        1.94483   0.00000  -0.00019   0.00083   0.00064   1.94546
   A27        1.95021  -0.00001  -0.00010   0.00039   0.00029   1.95051
   A28        1.88182   0.00002   0.00007  -0.00020  -0.00013   1.88170
   A29        1.87354   0.00002   0.00022  -0.00091  -0.00068   1.87285
   A30        1.87497   0.00001   0.00002  -0.00001   0.00001   1.87498
    D1       -0.00007   0.00000   0.00040  -0.00156  -0.00116  -0.00123
    D2       -3.14119   0.00000   0.00057  -0.00245  -0.00188   3.14012
    D3       -3.13972  -0.00001   0.00023  -0.00117  -0.00094  -3.14066
    D4        0.00234  -0.00001   0.00040  -0.00205  -0.00165   0.00069
    D5        0.00266  -0.00001  -0.00011   0.00023   0.00012   0.00279
    D6       -3.13489  -0.00001  -0.00010   0.00010   0.00000  -3.13489
    D7       -3.14090   0.00000   0.00006  -0.00017  -0.00010  -3.14100
    D8        0.00473   0.00000   0.00007  -0.00030  -0.00023   0.00450
    D9       -0.00169   0.00000  -0.00036   0.00148   0.00112  -0.00057
[...]
 2378897,0.17416608,0.01449071,-0.04211917,0.03317871,-0.00823575,-0.04
 745589,-0.07260969,0.06020006,-0.36307177,0.04056638,-0.08609280,0.735
 01656,-0.00730525,0.01999981,-0.01966772,0.00894718,-0.01530678,0.0349
 8120,-0.01202939,-0.02715838,-0.13049365,0.12311331,0.05809918,0.67153
 553,0.00797025,-0.01075985,0.01468414,-0.00901981,-0.00423725,-0.01572
 133,-0.00104059,0.02463603,0.00327015,-0.09043340,0.01821770,-0.064379
 52,0.22191445,0.00267494,-0.04482906,-0.02486544,-0.00565341,0.0172079
 4,-0.00702884,0.01351126,-0.02431925,0.03479907,0.03462865,-0.15133289
 ,0.08329091,-0.09409245,0.70907216,0.02339876,-0.07303185,0.04758551,-
 0.01554657,-0.00817775,-0.07532844,-0.00595620,0.08633346,0.03840637,-
 0.05128282,0.01662448,-0.26896749,0.12135563,0.00766902,0.67012834,-0.
 07655926,0.05781696,-0.01141192,0.00286377,0.01167229,-0.00760671,-0.0
 0271496,0.00262200,0.00280284,0.00618129,-0.00620269,-0.00874176,-0.08
 509508,-0.00890898,-0.03446130,0.21044951,0.04071213,-0.34761424,-0.02
 708379,0.02540593,-0.03045549,0.07867518,-0.00003207,-0.05095741,-0.03
 337239,-0.01409672,0.06106225,-0.02072469,0.00642595,-0.15714095,-0.03
 090113,-0.08737981,0.70666830,-0.02402865,0.04534631,-0.13123926,0.002
 12742,0.02278761,0.03126732,0.00124364,-0.02419313,-0.01469041,-0.0145
 9904,0.01250549,-0.04368470,-0.02256202,-0.09373341,-0.24098243,0.1062
 7801,0.00377950,0.61173932,-0.04579644,-0.01427689,-0.02818109,0.00458
 439,-0.00537539,-0.00719758,0.00396768,0.00179951,-0.00243084,-0.00111
 483,0.00009365,0.00027074,0.00710290,0.00221216,-0.00186941,0.00617091
 ,0.00362740,0.00396793,0.03323564,-0.01447845,-0.15051951,-0.13475116,
 0.00097431,0.01261145,0.00893819,0.00168920,-0.00066595,0.00314165,0.0
 0017866,-0.00096304,0.00087466,0.00213933,-0.00429961,0.00060789,-0.00
 277506,-0.01227718,-0.02380748,0.01362195,0.15808572,-0.02839908,-0.13
 383881,-0.25019811,-0.00276989,-0.01714603,-0.01766670,-0.00251800,0.0
 0346376,-0.00311702,0.00026230,0.00066761,0.00038606,-0.00182427,0.001
 16898,0.00112404,-0.00053688,0.00216276,0.00504926,0.03271103,0.145883
 53,0.26241276,0.00480132,0.00015816,-0.00123024,0.00439387,0.00180278,
 -0.00343779,-0.06569429,0.03774823,-0.07470070,0.00368680,0.00173039,-
 0.00424031,0.00758109,0.00176362,-0.00140637,-0.00110559,-0.00017561,0
 .00042692,0.00055020,0.00015976,-0.00018864,0.05497375,0.00025048,-0.0
 0189643,-0.00374923,-0.00455376,0.01321297,-0.01335665,0.03819650,-0.1
 1209595,0.10771797,0.00833507,-0.00739863,0.02580501,0.00187028,-0.004
 50690,-0.00088303,-0.00015106,-0.00109634,-0.00052686,-0.00022491,0.00
 066597,-0.00090876,-0.04297782,0.11485961,-0.00115012,-0.00414221,-0.0
 0244076,-0.00778898,0.01290831,-0.01750231,-0.07440478,0.10584603,-0.2
 7333852,0.00037675,-0.00164062,0.00543915,-0.00139786,-0.00141326,0.00
 168945,0.00044363,-0.00044555,0.00025753,-0.00045033,0.00067611,-0.000
 76850,0.08233638,-0.11626613,0.28518523,-0.00092015,0.00034103,-0.0000
 2064,0.00655959,0.00212959,-0.00149189,0.00353775,0.00337769,0.0052840
 3,-0.04057937,-0.01319828,-0.03160737,0.00353672,-0.00554728,-0.007291
 07,0.00464894,0.00174087,-0.00241158,-0.00036322,-0.00007007,0.0000940
 2,-0.00439719,-0.00103945,0.00120442,0.03061055,0.00018166,-0.00073733
 ,0.00078443,0.00232262,-0.00427572,0.00166311,-0.00397852,-0.01403766,
 -0.02747464,-0.01308166,-0.14485149,-0.12805325,0.00208935,0.00912515,
 0.01171311,0.00154998,-0.00050998,0.00242536,-0.00006759,-0.00000983,-
 0.00004737,-0.00085759,0.00111863,0.00050382,0.01274286,0.15242098,-0.
 00006911,0.00126422,-0.00022078,-0.00137200,0.00063315,0.00223029,0.00
 022666,0.00201711,0.00515256,-0.03138678,-0.12764550,-0.24816570,-0.00
 241621,-0.01864592,-0.01810075,-0.00249756,0.00316087,-0.00269193,0.00
 008954,-0.00002893,-0.00004623,0.00132872,-0.00009070,0.00040237,0.035
 35487,0.13913810,0.26057274,-0.00562916,0.01240569,-0.00010109,-0.0871
 1198,0.00764503,-0.00701942,-0.00197913,0.00147838,0.00754632,0.008057
 96,-0.00240204,-0.00157657,-0.00180864,0.00262517,-0.00115269,0.006433
 25,-0.00034177,-0.00462658,-0.00404033,-0.00069829,0.00072880,-0.00434
 147,-0.00108352,-0.00023697,0.00127652,-0.00025131,-0.00030479,0.30212
 694,0.01146910,-0.03782781,0.02370448,0.00763764,-0.13083833,-0.000629
 78,0.00254742,-0.04514766,-0.01795799,-0.00382203,0.01281976,-0.010851
 34,0.00166618,-0.01733068,0.00084241,0.00069165,0.01495261,0.00809504,
 -0.00160828,0.00064872,-0.00317955,-0.00018482,0.00108796,0.00279706,0
 .00025588,0.00031164,0.00037393,-0.06193881,0.67827478,-0.00069050,0.0
 2736234,0.01236194,-0.00713005,-0.00037468,-0.11349203,0.00824988,-0.0
 2196457,0.01525020,-0.00212164,-0.00697188,-0.00576674,-0.00095275,-0.
 00008327,-0.00542759,-0.00397872,0.00387492,-0.00600649,0.00011101,0.0
 0056107,-0.00350101,0.00034478,-0.00069073,-0.00349416,0.00006886,-0.0
 0174468,0.00033549,0.16160369,0.03593810,0.93588061,0.00373438,0.00109
 824,0.00117984,0.01409315,0.01787320,-0.01663543,0.00095771,-0.0021702
 0,-0.00246858,-0.00089733,0.00108342,-0.00029179,0.00032794,-0.0017420
 9,-0.00020965,-0.00102825,0.00120161,0.00073289,0.00050817,-0.00033798
 ,0.00019313,-0.00004167,0.00069514,0.00060218,-0.00004770,0.00008093,0
 .00003764,-0.12097518,0.06038899,-0.10942439,0.08282197,-0.00062087,-0
 .00345390,-0.00742102,0.02123625,-0.03330006,0.04975347,0.00106112,-0.
 00175744,0.00227023,0.00076139,-0.00118558,0.00243982,0.00000874,0.004
 31607,0.00172655,0.00054967,-0.00417994,-0.00000970,0.00004418,0.00042
 088,0.00017787,0.00093685,-0.00404081,0.00114872,-0.00001520,-0.000191
 01,-0.00015386,0.06085596,-0.22063980,0.15585866,-0.07614353,0.2195172
 7,-0.00001739,-0.00033017,0.00336772,-0.01432881,0.03593513,-0.0129744
 7,-0.00027900,-0.01090895,-0.00738374,-0.00067822,0.00410466,-0.000143
 94,0.00051808,-0.00423888,0.00052680,0.00027679,0.00268474,0.00197183,
 0.00044460,-0.00137080,0.00131556,0.00078849,0.00014050,0.00316400,-0.
 00002786,0.00024341,0.00000293,-0.10905769,0.15393704,-0.42486749,0.15
 981142,-0.18284437,0.55908734,0.00038696,0.00268685,-0.00172709,0.0211
 3711,0.00216111,0.00132235,0.00314125,0.00116638,-0.00145751,-0.000963
 11,0.00010989,0.00079826,0.00023621,0.00029187,0.00029403,-0.00035296,
 -0.00068593,0.00054842,-0.00003104,0.00087155,0.00089299,0.00040810,0.
 00032097,0.00019543,-0.00056023,0.00001016,0.00012950,-0.09270439,-0.0
 1569420,-0.04550473,0.02123701,-0.00912445,-0.03742590,0.04805319,-0.0
 0048429,-0.00085606,-0.00341604,-0.00121618,-0.04548057,-0.05016758,0.
 00284189,-0.00216382,0.00769556,0.00079933,-0.00471558,0.00037870,-0.0
 0090857,0.00455031,-0.00206823,-0.00033408,-0.00204100,-0.00237827,0.0
 0061699,-0.00431360,-0.00032940,-0.00004304,0.00060386,-0.00000063,0.0
 0008163,-0.00096186,0.00003492,-0.01616653,-0.27220662,-0.19327235,-0.
 00363759,0.04951320,-0.00090379,0.01793614,0.28277045,-0.00385848,0.00
 952861,-0.00813781,-0.00096345,-0.03635351,-0.00739724,-0.00030956,0.0
 0070030,0.00291871,0.00122768,-0.00188442,0.00235147,-0.00047588,0.004
 15719,0.00001603,0.00080116,-0.00376248,0.00005017,0.00071903,0.000696
 92,0.00333081,-0.00006095,0.00146070,0.00120818,0.00017051,-0.00019065
 ,-0.00005168,-0.04586222,-0.19143317,-0.40079542,-0.03367051,-0.023289
 78,-0.12433875,0.08180685,0.24375506,0.52986301,0.00376667,0.00243799,
 -0.00273247,-0.00015169,-0.00112567,0.00157820,0.00413739,0.00019629,-
 0.00394111,0.00673154,0.01826103,-0.00157166,-0.05852930,0.06864557,-0
 .02469485,0.00972819,-0.00442956,-0.00137746,-0.00029026,-0.00018250,0
 .00007213,-0.00022038,0.00046189,0.00008746,-0.00263507,-0.00076160,0.
 00154437,-0.00075579,0.00082483,0.00009456,0.00015247,-0.00021750,0.00
 033950,0.00003920,-0.00013548,-0.00010250,0.18557125,-0.00225312,0.012
 20602,-0.00383513,0.00342146,-0.01905261,0.00110947,-0.00067141,0.0121
 4074,0.00070878,0.01270421,-0.04157134,0.02059681,0.03474027,-0.316792
 06,0.00506289,0.00418197,-0.04948092,-0.01887448,0.00006775,-0.0004630
 4,0.00023189,-0.00004445,-0.00024839,0.00003537,-0.00119064,0.00183263
 ,-0.00070668,-0.00303658,0.01678051,-0.00043932,0.00166410,-0.00440994
 ,0.00374219,-0.00001157,-0.00489469,-0.00341946,-0.20993308,0.65655992
 ,-0.00394099,0.00163219,-0.00919630,0.00100491,0.00299345,0.00547366,-
 0.00146214,-0.00688205,-0.00846779,-0.00936894,0.04915229,-0.00103515,
 -0.02132215,-0.00433621,-0.12604343,0.00435923,-0.04110032,0.00420661,
 0.00040695,-0.00122911,0.00027046,-0.00018515,0.00121695,0.00013977,0.
 00048174,0.00079042,0.00181118,0.00039098,-0.00205106,-0.00006973,-0.0
 0003519,0.00032693,0.00004111,0.00010800,0.00084046,0.00097714,0.18605
 088,0.06369193,0.78710914,0.00175194,-0.00117482,0.00010541,-0.0002302
 6,0.00150180,-0.00048605,-0.00072599,-0.00073617,0.00002135,-0.0016079
 9,0.00116630,0.00007688,-0.00325589,-0.00767859,0.00463468,0.00249826,
 0.00274886,0.00031025,-0.00032707,-0.00003921,0.00008620,0.00008730,0.
 00004702,-0.00002297,0.00039774,0.00020589,-0.00075606,0.00028843,-0.0
 0135741,-0.00000940,-0.00018107,0.00034520,-0.00032501,-0.00001978,0.0
 0033346,0.00026614,-0.01741216,0.05189591,0.03297570,0.01854943,-0.000
 39629,-0.00041040,-0.00173212,0.00001857,0.00083016,0.00031584,-0.0004
 6418,-0.00080961,0.00005829,-0.00189561,0.00246365,-0.00178232,0.00227
 500,-0.01804834,-0.03453079,0.00235599,-0.00467735,0.00318150,0.000018
 84,-0.00039707,0.00011714,0.00005789,0.00003771,-0.00000832,0.00078913
 ,0.00006889,0.00128245,0.00019359,-0.00070463,0.00000122,-0.00006488,0
 .00018946,-0.00008107,0.00000352,0.00027884,0.00026231,0.03524224,-0.1
 4898727,-0.16042362,-0.03431206,0.15998001,-0.00016300,-0.00057916,0.0
 0025511,-0.00020744,0.00125319,0.00021785,-0.00032179,-0.00116042,-0.0
 0047357,-0.00032657,0.00334010,0.00147476,0.00184146,0.00050088,0.0058
 5349,-0.00031273,0.00266614,0.00116404,0.00007586,0.00006910,0.0000383
 1,-0.00000529,0.00007463,-0.00000756,0.00028953,-0.00033823,-0.0004948
 6,0.00033451,-0.00105286,0.00001200,-0.00012795,0.00026161,-0.00029408
 ,-0.00002848,0.00025841,0.00018923,0.01230480,-0.17073712,-0.36688466,
 -0.02103749,0.17927727,0.37520493,-0.00032691,-0.00066238,0.00002099,-
 0.00014978,0.00112896,0.00008499,0.00189797,-0.00068599,-0.00039979,0.
 00188015,0.00078736,-0.00071138,-0.00468128,-0.00642401,0.00187955,-0.
 00035010,0.00109369,-0.00009525,0.00011088,0.00001698,0.00000550,-0.00
 019676,-0.00005651,0.00007323,-0.00067013,-0.00016475,0.00010402,0.000
 04852,-0.00095864,0.00005417,-0.00008398,0.00022113,-0.00019516,0.0000
 0214,0.00026112,0.00020559,-0.12716990,0.10882046,-0.19127292,0.000183
 73,-0.00404901,0.00769921,0.12982829,-0.00024354,-0.00038960,0.0004377
 8,-0.00011107,0.00050352,-0.00020571,0.00047509,-0.00014058,0.00171655
 ,0.00095590,-0.00519836,-0.00301016,0.01888920,-0.01174429,0.03115378,
 -0.00040073,0.00093500,0.00153054,0.00006856,0.00000584,-0.00005406,0.
 00000072,-0.00039285,-0.00005939,-0.00004296,0.00011653,0.00016636,0.0
 0008296,-0.00045629,0.00012978,-0.00007869,0.00015488,-0.00025157,-0.0
 0001525,0.00010949,-0.00001660,0.09173208,-0.11583974,0.09961222,-0.01
 250942,0.00960482,-0.01335558,-0.09827520,0.12216531,-0.00012692,0.001
 20466,-0.00056356,0.00032018,-0.00217306,-0.00025078,-0.00062297,0.001
 55581,0.00044838,-0.00038618,-0.00256152,0.00256964,0.00124388,0.00845
 779,0.00227830,0.00082886,-0.00310918,-0.00107791,-0.00004330,-0.00013
 814,0.00006471,0.00012638,0.00000479,-0.00000011,0.00017211,-0.0000536
 5,0.00025233,-0.00033484,0.00191989,0.00000153,0.00015597,-0.00041423,
 0.00036312,-0.00001318,-0.00055808,-0.00048870,-0.16862884,0.10014248,
 -0.28998037,-0.01536372,0.01366989,-0.01606249,0.18221575,-0.11633124,
 0.30395338,0.00189413,0.00556211,-0.00711067,0.00812794,0.00132746,-0.
 00088706,-0.00100834,-0.00028902,-0.00010853,0.00505060,0.00076550,-0.
 00094517,0.00325156,-0.00016704,-0.00609077,-0.08402773,0.01794594,-0.
 03428218,-0.00477986,-0.00137510,0.00124183,-0.00056596,-0.00009723,0.
 00013535,-0.00023730,-0.00002367,0.00011811,0.00113541,0.00034441,-0.0
 0042278,-0.00057163,-0.00010084,0.00017934,0.00002387,-0.00006168,-0.0
 0001337,-0.00378647,0.00073365,0.00097609,-0.00025724,0.00031820,-0.00
 013388,0.00186681,0.00086474,0.00128824,0.53548831,0.01115847,-0.01641
 372,0.03165524,0.00125172,-0.00196935,-0.00231872,0.00030227,-0.001699
 90,0.00071040,-0.00014610,-0.00221478,-0.00504866,-0.00420098,0.011590
 10,-0.01198145,0.01728605,-0.11312229,0.04322022,-0.00075116,0.0010424
 0,0.00140770,-0.00009451,0.00008790,0.00003694,-0.00040629,0.00060549,
 -0.00106665,0.00062238,-0.00029062,0.00143687,-0.00000965,-0.00059097,
 0.00001001,-0.00002061,0.00003544,-0.00008310,-0.00105230,-0.00057546,
 -0.00383500,-0.00012273,0.00029130,-0.00019489,-0.00044932,0.00004118,
 -0.00111127,0.00759435,0.56743717,-0.00326306,0.00845053,-0.00335373,-
 0.00092238,-0.00172876,0.00297562,0.00027872,-0.00147945,-0.00089504,-
 0.00127393,-0.00261695,-0.00192342,-0.00910046,0.00582256,-0.02835824,
 -0.03577899,0.04851541,-0.18802103,0.00160400,-0.00157808,0.00075640,0
 .00010948,0.00005356,-0.00004170,-0.00019548,0.00058060,-0.00060041,-0
 .00018895,0.00022466,0.00061899,0.00021131,-0.00031943,0.00004951,-0.0
 0000440,-0.00019755,-0.00014980,0.00089947,0.00494823,-0.00077336,-0.0
 0057330,0.00069520,-0.00040965,-0.00043725,-0.00022173,0.00053023,-0.0
 0937657,0.04309009,0.52945429,0.00013283,-0.00081827,0.00020072,-0.000
 23899,0.00004110,-0.00005351,0.00008043,0.00004766,0.00005727,0.000195
 61,-0.00045481,-0.00029293,0.00051427,0.00159126,-0.00155465,-0.001900
 89,-0.00668618,-0.00709157,0.00030527,0.00032495,0.00003011,0.00001949
 ,0.00001672,0.00000864,-0.00015059,0.00004391,-0.00009805,-0.00004173,
 -0.00008119,-0.00006325,0.00002252,0.00000269,0.00002736,-0.00002597,0
 .00000984,0.00007738,0.00038396,0.00022223,0.00004588,0.00018274,-0.00
 000951,-0.00000124,-0.00078011,-0.00049011,-0.00004257,-0.04706082,-0.
 00665946,-0.00706346,0.04646003,0.00016864,0.00090732,0.00144841,-0.00
 007148,0.00025870,0.00015293,0.00000414,-0.00003166,-0.00000534,0.0000
 2338,0.00071999,0.00033516,0.00123829,-0.00258291,0.00262512,0.0005075
 9,0.01073430,0.01250361,0.00008914,-0.00006444,0.00000216,0.00001050,-
 0.00001491,-0.00001396,0.00004494,-0.00007057,0.00020501,0.00004534,-0
 .00016230,0.00007267,-0.00004245,0.00010635,-0.00010612,-0.00003048,0.
 00009387,-0.00002782,0.00024328,0.00003149,-0.00055283,-0.00008139,0.0
 0024082,-0.00010512,-0.00046455,0.00039667,0.00040935,-0.00774007,-0.1
 7646182,-0.13967940,0.00640964,0.18950181,0.00090709,-0.00283885,0.001
 93766,-0.00016403,0.00053681,-0.00039223,0.00003645,0.00020535,0.00032
 365,0.00000180,-0.00148063,-0.00066171,-0.00173896,0.00335542,-0.00375
 150,-0.00101828,-0.01937663,-0.02166044,-0.00014578,0.00119780,0.00043
 518,0.00000490,0.00005190,0.00005542,-0.00009610,0.00021617,-0.0003510
 5,0.00001275,-0.00047094,-0.00031197,0.00000582,0.00007327,0.00008692,
 0.00005918,0.00015052,0.00030886,-0.00016490,0.00088992,0.00037959,-0.
 00000569,-0.00009820,0.00008193,0.00024220,0.00016319,-0.00001460,-0.0
 0808952,-0.13491928,-0.19362485,0.01032077,0.14690029,0.21107587,-0.00
 057479,0.00075069,-0.00122658,-0.00069842,0.00022235,0.00029777,0.0000
 1651,-0.00007603,-0.00014689,-0.00043044,0.00028148,0.00012703,0.00090
 355,-0.00120761,-0.00013241,0.00900412,0.00920537,-0.00217902,0.000309
 23,0.00009346,-0.00009889,0.00004392,0.00000736,-0.00001224,0.00003302
 ,-0.00002753,0.00003411,-0.00008231,-0.00006801,-0.00011423,0.00003162
 ,0.00006960,-0.00001691,0.00000430,0.00005044,0.00005236,0.00037201,0.
 00028672,-0.00004839,-0.00023969,0.00015143,-0.00015160,-0.00073750,0.
 00014861,0.00064264,-0.15695001,-0.12154352,0.04491129,-0.00034096,0.0
 0064351,-0.00078860,0.16890886,-0.00030187,0.00038631,0.00191727,0.001
 13433,-0.00036065,0.00043332,-0.00005169,-0.00030110,-0.00020009,0.000
 09657,0.00004433,0.00003816,0.00050380,-0.00154099,-0.00152113,-0.0057
 7090,-0.01187850,0.00640816,-0.00065448,0.00015621,0.00027560,-0.00005
 490,-0.00000113,0.00003447,-0.00001441,0.00001862,0.00003776,0.0001069
 0,0.00038664,0.00011275,0.00000904,-0.00024491,0.00013883,0.00003716,-
 0.00015291,-0.00004892,0.00024782,0.00135437,0.00021306,-0.00023292,0.
 00003501,-0.00006777,-0.00010946,0.00019288,-0.00056505,-0.12207754,-0
 .17805440,0.04698067,-0.01417626,-0.01474924,0.00650664,0.13243683,0.1
 9376190,-0.00007175,-0.00040323,-0.00243883,-0.00115526,-0.00009860,-0
 .00041121,0.00002734,0.00114086,0.00004146,-0.00040720,-0.00066962,0.0
 0116875,-0.00073451,0.00316937,-0.00021075,0.01784976,0.02116942,-0.00
 834852,0.00034832,0.00017781,-0.00004378,0.00001055,-0.00002799,0.0000
 2282,0.00007428,-0.00006221,-0.00004546,-0.00035194,-0.00012873,-0.000
 29711,0.00007529,0.00023099,-0.00001214,0.00002356,0.00008801,0.000052
 38,0.00019701,-0.00187548,0.00140715,-0.00013093,-0.00024578,0.0002101
 8,0.00133957,-0.00038841,-0.00161431,0.04536210,0.04861385,-0.06660326
 ,-0.01653557,-0.01590383,0.00763678,-0.04836072,-0.05654262,0.07093823
 ,-0.00039695,-0.00110568,-0.00039013,0.00001515,-0.00008334,-0.0007210
 4,-0.00012522,0.00067938,0.00024864,0.00022436,-0.00060112,0.00035968,
 0.00052505,0.00347696,0.00008612,-0.00484341,0.00371988,-0.00238213,-0
 .00010222,-0.00011348,0.00001761,0.00001748,-0.00001717,0.00000077,-0.
 00003988,-0.00001314,-0.00006696,0.00010307,-0.00011273,-0.00011449,-0
 .00006011,0.00012961,-0.00003364,-0.00001183,0.00005659,-0.00000976,0.
 00006836,-0.00159788,0.00083553,0.00031758,-0.00023285,0.00027209,-0.0
 0067203,-0.00105090,-0.00143148,-0.25759325,0.09724139,0.02016397,0.00
 224293,-0.00099798,0.00062089,-0.01957302,0.00887199,0.00244010,0.2799
 0396,0.00089186,0.00030740,0.00178509,-0.00080827,-0.00070681,0.000808
 41,0.00005339,-0.00023278,-0.00015426,-0.00006715,-0.00004800,0.000077
 38,-0.00050102,-0.00139378,-0.00126334,0.01268913,-0.00892088,0.001739
 99,0.00069855,0.00033608,-0.00005501,0.00006384,0.00001772,0.00000325,
 0.00002096,0.00002690,0.00002437,-0.00014256,0.00034211,0.00019313,0.0
 0013240,-0.00022376,0.00009920,-0.00001312,-0.00016873,-0.00005118,-0.
 00045534,0.00140978,-0.00005971,0.00000029,0.00001400,-0.00011018,-0.0
 0002989,-0.00006441,-0.00034925,0.09647582,-0.08973767,-0.01154016,0.0
 2066577,-0.00885344,-0.00106272,-0.02142516,0.01094755,0.00175619,-0.1
 0824951,0.09694874,-0.00073559,-0.00029692,-0.00216105,0.00093475,0.00
 037604,-0.00083453,-0.00033990,0.00090291,0.00008619,0.00122033,-0.000
 15807,0.00060367,-0.00028741,0.00195405,-0.00043774,-0.02729545,0.0131
 8722,0.00269706,-0.00043068,0.00007899,0.00015781,-0.00002113,-0.00002
 593,0.00002970,-0.00005239,-0.00009386,0.00000898,0.00019671,-0.000077
 18,-0.00043101,-0.00014199,0.00018428,0.00003778,-0.00001728,0.0000902
 9,0.00009343,0.00004539,-0.00127229,0.00063499,0.00023401,0.00004111,-
 0.00007497,-0.00081303,-0.00101575,-0.00040881,0.01815945,-0.00962230,
 -0.04963054,0.02202868,-0.00826030,-0.00155351,0.00721130,-0.00415110,
 -0.00145237,-0.01989576,0.00815882,0.05263494\\-0.00000020,0.,-0.00000
 012,-0.00000013,0.00000067,0.00000010,0.00000010,-0.00000066,-0.000000
 16,-0.00000007,0.00000045,-0.00000043,0.00000007,-0.00000063,0.0000003
 3,-0.00000001,0.00000029,0.00000021,0.00000002,-0.00000014,0.00000017,
 -0.00000004,0.00000042,0.00000009,-0.00000003,0.00000007,-0.00000005,0
 .00000031,-0.00000051,0.00000093,-0.00000026,0.00000040,-0.00000062,0.
 00000002,-0.00000014,0.00000024,0.00000063,0.00000046,-0.00000026,-0.0
 0000011,0.00000010,-0.00000015,-0.00000028,-0.00000013,-0.00000008,0.0
 0000006,-0.00000011,-0.00000026,0.00000006,-0.00000017,0.00000008,-0.0
 0000012,-0.00000017,-0.00000004,-0.00000002,-0.00000019,0.00000002\\\@


 SCIENCE AT ITS BEST PROVIDES US WITH BETTER QUESTIONS, 
 NOT ABSOLUTE ANSWERS

                                    -- NORMAN COUSINS, 1976
 Job cpu time:  0 days  8 hours  5 minutes 24.2 seconds.
 File lengths (MBytes):  RWF=    332 Int=      0 D2E=      0 Chk=     15 Scr=      1
 Normal termination of Gaussian 09 at Sun Jan  8 13:02:28 2023.
