 Entering Link 1 = Z:\home\jakler\Desktop\Matheus\G09W\l1.exe PID=       316.
  
 Copyright (c) 1988,1990,1992,1993,1995,1998,2003,2009,2013,
            Gaussian, Inc.  All Rights Reserved.
  
 This is part of the Gaussian(R) 09 program.  It is based on
 the Gaussian(R) 03 system (copyright 2003, Gaussian, Inc.),
 the Gaussian(R) 98 system (copyright 1998, Gaussian, Inc.),
 the Gaussian(R) 94 system (copyright 1995, Gaussian, Inc.),
 the Gaussian 92(TM) system (copyright 1992, Gaussian, Inc.),
 the Gaussian 90(TM) system (copyright 1990, Gaussian, Inc.),
 the Gaussian 88(TM) system (copyright 1988, Gaussian, Inc.),
 the Gaussian 86(TM) system (copyright 1986, Carnegie Mellon
 University), and the Gaussian 82(TM) system (copyright 1983,
 Carnegie Mellon University). Gaussian is a federally registered
 trademark of Gaussian, Inc.
  
 This software contains proprietary and confidential information,
 including trade secrets, belonging to Gaussian, Inc.
  
 This software is provided under written license and may be
 used, copied, transmitted, or stored only in accord with that
 written license.
  
 The following legend is applicable only to US Government
 contracts under FAR:
  
                    RESTRICTED RIGHTS LEGEND
  
 Use, reproduction and disclosure by the US Government is
 subject to restrictions as set forth in subparagraphs (a)
 and (c) of the Commercial Computer Software - Restricted
 Rights clause in FAR 52.227-19.
  
 Gaussian, Inc.
 340 Quinnipiac St., Bldg. 40, Wallingford CT 06492
  
  
 ---------------------------------------------------------------
 Warning -- This program may not be used in any manner that
 competes with the business of Gaussian, Inc. or will provide
 assistance to any competitor of Gaussian, Inc.  The licensee
 of this program is prohibited from giving any competitor of
 Gaussian, Inc. access to this program.  By using this program,
 the user acknowledges that Gaussian, Inc. is engaged in the
 business of creating and licensing software in the field of
 computational chemistry and represents and warrants to the
 licensee that it is not a competitor of Gaussian, Inc. and that
 it will not use this program in any manner prohibited above.
 ---------------------------------------------------------------
  

 Cite this work as:
 Gaussian 09, Revision D.01,
 M. J. Frisch, G. W. Trucks, H. B. Schlegel, G. E. Scuseria, 
 M. A. Robb, J. R. Cheeseman, G. Scalmani, V. Barone, B. Mennucci, 
 G. A. Petersson, H. Nakatsuji, M. Caricato, X. Li, H. P. Hratchian, 
 A. F. Izmaylov, J. Bloino, G. Zheng, J. L. Sonnenberg, M. Hada, 
 M. Ehara, K. Toyota, R. Fukuda, J. Hasegawa, M. Ishida, T. Nakajima, 
 Y. Honda, O. Kitao, H. Nakai, T. Vreven, J. A. Montgomery, Jr., 
 J. E. Peralta, F. Ogliaro, M. Bearpark, J. J. Heyd, E. Brothers, 
 K. N. Kudin, V. N. Staroverov, T. Keith, R. Kobayashi, J. Normand, 
 K. Raghavachari, A. Rendell, J. C. Burant, S. S. Iyengar, J. Tomasi, 
 M. Cossi, N. Rega, J. M. Millam, M. Klene, J. E. Knox, J. B. Cross, 
 V. Bakken, C. Adamo, J. Jaramillo, R. Gomperts, R. E. Stratmann, 
 O. Yazyev, A. J. Austin, R. Cammi, C. Pomelli, J. W. Ochterski, 
 R. L. Martin, K. Morokuma, V. G. Zakrzewski, G. A. Voth, 
 P. Salvador, J. J. Dannenberg, S. Dapprich, A. D. Daniels, 
 O. Farkas, J. B. Foresman, J. V. Ortiz, J. Cioslowski, 
 and D. J. Fox, Gaussian, Inc., Wallingford CT, 2013.
 
 ******************************************
 Gaussian 09:  IA32W-G09RevD.01 24-Apr-2013
                07-Jan-2023 
 ******************************************
 %nprocshared=8
 Will use up to    8 processors via shared memory.
 %chk=Z:\home\jakler\matheus\cn_s0.chk
 ---------------------------------------------------
 # opt=tight freq cam-b3lyp/gen scf=qc int=ultrafine
 ---------------------------------------------------
 1/7=10,14=-1,18=20,19=15,26=4,38=1/1,3;
 2/9=110,12=2,17=6,18=5,40=1/2;
 3/5=7,11=2,16=1,25=1,30=1,71=1,74=-40,75=-5/1,2,3;
 4//1;
 5/5=2,8=3,38=5/8;
 6/7=2,8=2,9=2,10=2,28=1/1;
 7//1,2,3,16;
 1/7=10,14=-1,18=20,19=15,26=4/3(2);
 2/9=110/2;
 99//99;
 2/9=110/2;
 3/5=7,6=1,11=2,16=1,25=1,30=1,71=1,74=-40,75=-5,82=7/1,2,3;
 4/5=5,16=3,69=1/1;
 5/5=2,8=3,38=5/8;
 7//1,2,3,16;
 1/7=10,14=-1,18=20,19=15,26=4/3(-5);
 2/9=110/2;
 6/7=2,8=2,9=2,10=2,19=2,28=1/1;
 99/9=1/99;
 ---------------------------
 NA+CH3 CAM-B3LYP def2-TZVPD
 ---------------------------
 Symbolic Z-matrix:
 Charge =  0 Multiplicity = 1
 C                     0.07007   0.87001   0.94094 
 C                    -0.27722   1.45223  -0.25569 
 C                    -0.41222   0.69411  -1.41174 
 C                    -0.19553  -0.65803  -1.36905 
 C                     0.16247  -1.29197  -0.17007 
 C                     0.28982  -0.49721   0.9897 
 H                     0.16798   1.47675   1.82805 
 H                    -0.68664   1.18574  -2.33258 
 H                    -0.29878  -1.25038  -2.26813 
 N                    -0.50802   2.88955  -0.31134 
 O                    -0.81442   3.36814  -1.38486 
 O                    -0.38025   3.52427   0.7154 
 N                     0.38122  -2.62364  -0.1222 
 H                     0.2855   -3.1876   -0.94533 
 H                     0.63197  -3.07758   0.73882 
 C                     0.64625  -1.14134   2.20996 
 N                     0.93782  -1.73304   3.14813 
 

 GradGradGradGradGradGradGradGradGradGradGradGradGradGradGradGradGradGrad
 Berny optimization.
 Initialization pass.
                           ----------------------------
                           !    Initial Parameters    !
                           ! (Angstroms and Degrees)  !
 --------------------------                            --------------------------
 ! Name  Definition              Value          Derivative Info.                !
 --------------------------------------------------------------------------------
 ! R1    R(1,2)                  1.3753         estimate D2E/DX2                !
 ! R2    R(1,6)                  1.3856         estimate D2E/DX2                !
 ! R3    R(1,7)                  1.0792         estimate D2E/DX2                !
 ! R4    R(2,3)                  1.389          estimate D2E/DX2                !
 ! R5    R(2,10)                 1.4568         estimate D2E/DX2                !
 ! R6    R(3,4)                  1.3701         estimate D2E/DX2                !
 ! R7    R(3,8)                  1.0793         estimate D2E/DX2                !
 ! R8    R(4,5)                  1.4027         estimate D2E/DX2                !
 ! R9    R(4,9)                  1.0816         estimate D2E/DX2                !
 ! R10   R(5,6)                  1.4117         estimate D2E/DX2                !
 ! R11   R(5,13)                 1.3504         estimate D2E/DX2                !
 ! R12   R(6,16)                 1.4251         estimate D2E/DX2                !
 ! R13   R(10,11)                1.2147         estimate D2E/DX2                !
 ! R14   R(10,12)                1.2138         estimate D2E/DX2                !
 ! R15   R(13,14)                1.0024         estimate D2E/DX2                !
 ! R16   R(13,15)                1.0051         estimate D2E/DX2                !
 ! R17   R(16,17)                1.1469         estimate D2E/DX2                !
 ! A1    A(2,1,6)              119.2341         estimate D2E/DX2                !
 ! A2    A(2,1,7)              120.0071         estimate D2E/DX2                !
 ! A3    A(6,1,7)              120.7588         estimate D2E/DX2                !
 ! A4    A(1,2,3)              121.173          estimate D2E/DX2                !
 ! A5    A(1,2,10)             119.4012         estimate D2E/DX2                !
 ! A6    A(3,2,10)             119.4258         estimate D2E/DX2                !
 ! A7    A(2,3,4)              119.8245         estimate D2E/DX2                !
 ! A8    A(2,3,8)              119.089          estimate D2E/DX2                !
 ! A9    A(4,3,8)              121.0864         estimate D2E/DX2                !
 ! A10   A(3,4,5)              120.8655         estimate D2E/DX2                !
 ! A11   A(3,4,9)              119.9667         estimate D2E/DX2                !
 ! A12   A(5,4,9)              119.1677         estimate D2E/DX2                !
 ! A13   A(4,5,6)              118.0868         estimate D2E/DX2                !
 ! A14   A(4,5,13)             121.153          estimate D2E/DX2                !
 ! A15   A(6,5,13)             120.7601         estimate D2E/DX2                !
 ! A16   A(1,6,5)              120.8157         estimate D2E/DX2                !
 ! A17   A(1,6,16)             121.0493         estimate D2E/DX2                !
 ! A18   A(5,6,16)             118.1347         estimate D2E/DX2                !
 ! A19   A(2,10,11)            117.5473         estimate D2E/DX2                !
 ! A20   A(2,10,12)            117.8348         estimate D2E/DX2                !
 ! A21   A(11,10,12)           124.6178         estimate D2E/DX2                !
 ! A22   A(5,13,14)            120.6807         estimate D2E/DX2                !
 ! A23   A(5,13,15)            121.0741         estimate D2E/DX2                !
 ! A24   A(14,13,15)           118.2405         estimate D2E/DX2                !
 ! A25   L(6,16,17,15,-1)      175.726          estimate D2E/DX2                !
 ! A26   L(6,16,17,15,-2)      179.8659         estimate D2E/DX2                !
 ! D1    D(6,1,2,3)              0.0735         estimate D2E/DX2                !
 ! D2    D(6,1,2,10)          -179.9495         estimate D2E/DX2                !
 ! D3    D(7,1,2,3)           -179.8877         estimate D2E/DX2                !
 ! D4    D(7,1,2,10)             0.0893         estimate D2E/DX2                !
 ! D5    D(2,1,6,5)              0.058          estimate D2E/DX2                !
 ! D6    D(2,1,6,16)          -179.7533         estimate D2E/DX2                !
 ! D7    D(7,1,6,5)           -179.9811         estimate D2E/DX2                !
 ! D8    D(7,1,6,16)             0.2076         estimate D2E/DX2                !
 ! D9    D(1,2,3,4)             -0.1004         estimate D2E/DX2                !
 ! D10   D(1,2,3,8)            179.9682         estimate D2E/DX2                !
 ! D11   D(10,2,3,4)           179.9226         estimate D2E/DX2                !
 ! D12   D(10,2,3,8)            -0.0088         estimate D2E/DX2                !
 ! D13   D(1,2,10,11)         -179.9235         estimate D2E/DX2                !
 ! D14   D(1,2,10,12)            0.1257         estimate D2E/DX2                !
 ! D15   D(3,2,10,11)            0.0539         estimate D2E/DX2                !
 ! D16   D(3,2,10,12)         -179.8969         estimate D2E/DX2                !
 ! D17   D(2,3,4,5)             -0.0057         estimate D2E/DX2                !
 ! D18   D(2,3,4,9)           -179.9217         estimate D2E/DX2                !
 ! D19   D(8,3,4,5)            179.9243         estimate D2E/DX2                !
 ! D20   D(8,3,4,9)              0.0083         estimate D2E/DX2                !
 ! D21   D(3,4,5,6)              0.1317         estimate D2E/DX2                !
 ! D22   D(3,4,5,13)          -179.8049         estimate D2E/DX2                !
 ! D23   D(9,4,5,6)           -179.9516         estimate D2E/DX2                !
 ! D24   D(9,4,5,13)             0.1118         estimate D2E/DX2                !
 ! D25   D(4,5,6,1)             -0.1584         estimate D2E/DX2                !
 ! D26   D(4,5,6,16)           179.6583         estimate D2E/DX2                !
 ! D27   D(13,5,6,1)           179.7785         estimate D2E/DX2                !
 ! D28   D(13,5,6,16)           -0.4048         estimate D2E/DX2                !
 ! D29   D(4,5,13,14)           -0.4063         estimate D2E/DX2                !
 ! D30   D(4,5,13,15)         -179.6056         estimate D2E/DX2                !
 ! D31   D(6,5,13,14)          179.6587         estimate D2E/DX2                !
 ! D32   D(6,5,13,15)            0.4595         estimate D2E/DX2                !
 --------------------------------------------------------------------------------
 Trust Radius=3.00D-01 FncErr=1.00D-07 GrdErr=1.00D-06
 Number of steps in this run=     85 maximum allowed number of steps=    102.
 GradGradGradGradGradGradGradGradGradGradGradGradGradGradGradGradGradGrad

                          Input orientation:                          
 ---------------------------------------------------------------------
 Center     Atomic      Atomic             Coordinates (Angstroms)
 Number     Number       Type             X           Y           Z
 ---------------------------------------------------------------------
      1          6           0        0.070072    0.870010    0.940936
      2          6           0       -0.277221    1.452231   -0.255687
      3          6           0       -0.412225    0.694113   -1.411737
      4          6           0       -0.195531   -0.658030   -1.369051
      5          6           0        0.162467   -1.291969   -0.170068
      6          6           0        0.289819   -0.497213    0.989700
      7          1           0        0.167981    1.476749    1.828047
      8          1           0       -0.686640    1.185744   -2.332584
      9          1           0       -0.298779   -1.250383   -2.268135
     10          7           0       -0.508024    2.889545   -0.311340
     11          8           0       -0.814422    3.368144   -1.384862
     12          8           0       -0.380249    3.524270    0.715403
     13          7           0        0.381220   -2.623644   -0.122198
     14          1           0        0.285500   -3.187604   -0.945331
     15          1           0        0.631967   -3.077580    0.738818
     16          6           0        0.646247   -1.141340    2.209959
     17          7           0        0.937818   -1.733045    3.148131
 ---------------------------------------------------------------------
                    Distance matrix (angstroms):
                    1          2          3          4          5
     1  C    0.000000
     2  C    1.375318   0.000000
     3  C    2.408032   1.389036   0.000000
     4  C    2.782353   2.387353   1.370062   0.000000
     5  C    2.432493   2.780520   2.411750   1.402713   0.000000
     6  C    1.385628   2.381775   2.771105   2.413531   1.411707
     7  H    1.079206   2.130905   3.383100   3.861458   3.414425
     8  H    3.374646   2.133575   1.079335   2.137542   3.396546
     9  H    3.863968   3.369649   2.127758   1.081617   2.148572
    10  N    2.445590   1.456791   2.457635   3.715063   4.237285
    11  O    3.525953   2.287870   2.704242   4.073494   4.913929
    12  O    2.701619   2.290628   3.540555   4.676612   4.926942
    13  N    3.665063   4.130874   3.646914   2.398108   1.350371
    14  H    4.479804   4.724440   3.971408   2.609535   2.051731
    15  H    3.992498   4.725976   4.465523   3.313923   2.057889
    16  C    2.447024   3.695783   4.195943   3.708300   2.433363
    17  N    3.521447   4.817497   5.339111   4.779651   3.436009
                    6          7          8          9         10
     6  C    0.000000
     7  H    2.148068   0.000000
     8  H    3.850115   4.257455   0.000000
     9  H    3.395173   4.943058   2.467652   0.000000
    10  N    3.714753   2.651406   2.649579   4.583867   0.000000
    11  O    4.668927   3.855552   2.382725   4.730418   1.214655
    12  O    4.086141   2.393924   3.853934   5.630759   1.213838
    13  N    2.401329   4.545564   4.531840   2.636909   5.587646
    14  H    3.313995   5.427856   4.689957   2.417440   6.161442
    15  H    2.615015   4.705700   5.417395   3.639602   6.165143
    16  C    1.425122   2.688678   5.275093   4.578022   4.892579
    17  N    2.570216   3.555003   6.418445   5.576564   5.952036
                   11         12         13         14         15
    11  O    0.000000
    12  O    2.150348   0.000000
    13  N    6.239023   6.251260   0.000000
    14  H    6.661895   6.946258   1.002378   0.000000
    15  H    6.938978   6.679038   1.005127   1.722934   0.000000
    16  C    5.949096   5.005528   2.776043   3.777987   2.431765
    17  N    7.045602   5.940945   3.434824   4.392913   2.775987
                   16         17
    16  C    0.000000
    17  N    1.146863   0.000000
 Stoichiometry    C7H5N3O2
 Framework group  C1[X(C7H5N3O2)]
 Deg. of freedom    45
 Full point group                 C1      NOp   1
 Largest Abelian subgroup         C1      NOp   1
 Largest concise Abelian subgroup C1      NOp   1
                         Standard orientation:                         
 ---------------------------------------------------------------------
 Center     Atomic      Atomic             Coordinates (Angstroms)
 Number     Number       Type             X           Y           Z
 ---------------------------------------------------------------------
      1          6           0       -0.133644   -0.859223    0.000714
      2          6           0       -1.137011    0.081390   -0.000498
      3          6           0       -0.848733    1.440180   -0.002999
      4          6           0        0.455403    1.860061   -0.002213
      5          6           0        1.509403    0.934493    0.001215
      6          6           0        1.187015   -0.439910    0.000961
      7          1           0       -0.379055   -1.910156    0.000827
      8          1           0       -1.662487    2.149240   -0.004413
      9          1           0        0.682503    2.917567   -0.002875
     10          7           0       -2.526776   -0.355406    0.000356
     11          8           0       -3.385593    0.503555   -0.002199
     12          8           0       -2.745629   -1.549344    0.004483
     13          7           0        2.796845    1.341887    0.005942
     14          1           0        3.024427    2.318075    0.000981
     15          1           0        3.551200    0.677645    0.002468
     16          6           0        2.257066   -1.381158   -0.003053
     17          7           0        3.172244   -2.072348   -0.003444
 ---------------------------------------------------------------------
 Rotational constants (GHZ):      1.9213494      0.6306833      0.4748239
 General basis read from cards:  (5D, 7F)
 There are   567 symmetry adapted cartesian basis functions of A   symmetry.
 There are   495 symmetry adapted basis functions of A   symmetry.
   495 basis functions,   757 primitive gaussians,   567 cartesian basis functions
    42 alpha electrons       42 beta electrons
       nuclear repulsion energy       635.5807385931 Hartrees.
 NAtoms=   17 NActive=   17 NUniq=   17 SFac= 1.00D+00 NAtFMM=   60 NAOKFM=F Big=F
 Integral buffers will be    262144 words long.
 Raffenetti 2 integral format.
 Two-electron integral symmetry is turned on.
 One-electron integrals computed using PRISM.
 PrsmSu:  requested number of processors reduced to:   4 ShMem   1 Linda.
 NBasis=   495 RedAO= T EigKep=  1.22D-06  NBF=   495
 NBsUse=   493 1.00D-06 EigRej=  8.16D-07 NBFU=   493
 ExpMin= 4.85D-02 ExpMax= 2.70D+04 ExpMxC= 9.22D+02 IAcc=3 IRadAn=         5 AccDes= 0.00D+00
 Harris functional with IExCor=20419 and IRadAn=       5 diagonalized for initial guess.
 HarFok:  IExCor=20419 AccDes= 0.00D+00 IRadAn=         5 IDoV= 1 UseB2=F ITyADJ=14
 ICtDFT=  3500011 ScaDFX=  1.000000  1.000000  1.000000  1.000000
 FoFCou: FMM=F IPFlag=           0 FMFlag=      100000 FMFlg1=           0
         NFxFlg=           0 DoJE=T BraDBF=F KetDBF=T FulRan=T
         wScrn=  0.000000 ICntrl=     500 IOpCl=  0 I1Cent=   200000004 NGrid=           0
         NMat0=    1 NMatS0=      1 NMatT0=    0 NMatD0=    1 NMtDS0=    0 NMtDT0=    0
 Petite list used in FoFCou.
 Gradient too large for Newton-Raphson -- use scaled steepest descent instead.
     Minimum is close to point  3 DX=  5.12D-02 DF= -2.22D-03 DXR=  9.28D-02 DFR=  8.65D-03 which will be used.
 Gradient too large for Newton-Raphson -- use scaled steepest descent instead.
     Minimum is close to point  3 DX=  7.38D-02 DF= -1.61D-04 DXR=  8.45D-02 DFR=  7.16D-03 which will be used.
 Gradient too large for Newton-Raphson -- use scaled steepest descent instead.
     Accept linear search using points  1 and  2.
 Gradient too large for Newton-Raphson -- use scaled steepest descent instead.
     Accept linear search using points  2 and  3.
 Gradient too large for Newton-Raphson -- use scaled steepest descent instead.
     Accept linear search using points  1 and  2.
 LinEq1:  Iter=  0 NonCon=     1 RMS=2.77D-05 Max=2.26D-03 NDo=     1
 AX will form     1 AO Fock derivatives at one time.
 LinEq1:  Iter=  1 NonCon=     1 RMS=9.64D-06 Max=6.11D-04 NDo=     1
 LinEq1:  Iter=  2 NonCon=     1 RMS=5.74D-06 Max=2.48D-04 NDo=     1
 LinEq1:  Iter=  3 NonCon=     1 RMS=4.31D-06 Max=2.47D-04 NDo=     1
 LinEq1:  Iter=  4 NonCon=     1 RMS=2.52D-06 Max=1.05D-04 NDo=     1
 LinEq1:  Iter=  5 NonCon=     1 RMS=1.17D-06 Max=4.01D-05 NDo=     1
 LinEq1:  Iter=  6 NonCon=     1 RMS=1.03D-06 Max=4.98D-05 NDo=     1
 LinEq1:  Iter=  7 NonCon=     1 RMS=4.62D-07 Max=2.97D-05 NDo=     1
 LinEq1:  Iter=  8 NonCon=     1 RMS=2.61D-07 Max=1.19D-05 NDo=     1
 LinEq1:  Iter=  9 NonCon=     1 RMS=1.47D-07 Max=6.20D-06 NDo=     1
 LinEq1:  Iter= 10 NonCon=     1 RMS=5.85D-08 Max=3.16D-06 NDo=     1
 LinEq1:  Iter= 11 NonCon=     1 RMS=2.79D-08 Max=1.22D-06 NDo=     1
 LinEq1:  Iter= 12 NonCon=     1 RMS=1.42D-08 Max=6.59D-07 NDo=     1
 LinEq1:  Iter= 13 NonCon=     1 RMS=5.85D-09 Max=2.41D-07 NDo=     1
 LinEq1:  Iter= 14 NonCon=     0 RMS=3.31D-09 Max=1.23D-07 NDo=     1
 Linear equations converged to 1.946D-08 1.946D-07 after    14 iterations.
     Accept linear search using points  1 and  2.
     Minimum is close to point  2 DX= -6.39D-05 DF= -1.14D-13 DXR=  6.40D-05 DFR=  6.01D-09 which will be used.
 LinEq1:  Iter=  0 NonCon=     1 RMS=7.11D-08 Max=4.97D-06 NDo=     1
 LinEq1:  Iter=  1 NonCon=     1 RMS=2.79D-08 Max=9.63D-07 NDo=     1
 LinEq1:  Iter=  2 NonCon=     1 RMS=2.07D-08 Max=8.43D-07 NDo=     1
 LinEq1:  Iter=  3 NonCon=     1 RMS=9.14D-09 Max=4.40D-07 NDo=     1
 LinEq1:  Iter=  4 NonCon=     1 RMS=8.81D-09 Max=5.82D-07 NDo=     1
 LinEq1:  Iter=  5 NonCon=     1 RMS=4.11D-09 Max=1.96D-07 NDo=     1
 LinEq1:  Iter=  6 NonCon=     1 RMS=2.91D-09 Max=1.46D-07 NDo=     1
 LinEq1:  Iter=  7 NonCon=     1 RMS=1.97D-09 Max=8.39D-08 NDo=     1
 LinEq1:  Iter=  8 NonCon=     1 RMS=1.13D-09 Max=6.15D-08 NDo=     1
 LinEq1:  Iter=  9 NonCon=     1 RMS=6.58D-10 Max=3.02D-08 NDo=     1
 LinEq1:  Iter= 10 NonCon=     1 RMS=3.27D-10 Max=1.21D-08 NDo=     1
 LinEq1:  Iter= 11 NonCon=     1 RMS=1.50D-10 Max=4.95D-09 NDo=     1
 LinEq1:  Iter= 12 NonCon=     1 RMS=5.99D-11 Max=2.63D-09 NDo=     1
 LinEq1:  Iter= 13 NonCon=     0 RMS=2.48D-11 Max=7.63D-10 NDo=     1
 Linear equations converged to 1.033D-10 1.033D-09 after    13 iterations.
 SCF Done:  E(RCAM-B3LYP) =  -584.325552519     a.u. after    8 cycles
            Convg  =    0.1653D-08                    43 Fock formations.
              S**2 =  0.0000                  -V/T =  2.0038

 **********************************************************************

            Population analysis using the SCF density.

 **********************************************************************

 Orbital symmetries:
       Occupied  (A) (A) (A) (A) (A) (A) (A) (A) (A) (A) (A) (A)
                 (A) (A) (A) (A) (A) (A) (A) (A) (A) (A) (A) (A)
                 (A) (A) (A) (A) (A) (A) (A) (A) (A) (A) (A) (A)
                 (A) (A) (A) (A) (A) (A)
       Virtual   (A) (A) (A) (A) (A) (A) (A) (A) (A) (A) (A) (A)
                 (A) (A) (A) (A) (A) (A) (A) (A) (A) (A) (A) (A)
                 (A) (A) (A) (A) (A) (A) (A) (A) (A) (A) (A) (A)
                 (A) (A) (A) (A) (A) (A) (A) (A) (A) (A) (A) (A)
                 (A) (A) (A) (A) (A) (A) (A) (A) (A) (A) (A) (A)
                 (A) (A) (A) (A) (A) (A) (A) (A) (A) (A) (A) (A)
                 (A) (A) (A) (A) (A) (A) (A) (A) (A) (A) (A) (A)
                 (A) (A) (A) (A) (A) (A) (A) (A) (A) (A) (A) (A)
                 (A) (A) (A) (A) (A) (A) (A) (A) (A) (A) (A) (A)
                 (A) (A) (A) (A) (A) (A) (A) (A) (A) (A) (A) (A)
                 (A) (A) (A) (A) (A) (A) (A) (A) (A) (A) (A) (A)
                 (A) (A) (A) (A) (A) (A) (A) (A) (A) (A) (A) (A)
                 (A) (A) (A) (A) (A) (A) (A) (A) (A) (A) (A) (A)
                 (A) (A) (A) (A) (A) (A) (A) (A) (A) (A) (A) (A)
                 (A) (A) (A) (A) (A) (A) (A) (A) (A) (A) (A) (A)
                 (A) (A) (A) (A) (A) (A) (A) (A) (A) (A) (A) (A)
                 (A) (A) (A) (A) (A) (A) (A) (A) (A) (A) (A) (A)
                 (A) (A) (A) (A) (A) (A) (A) (A) (A) (A) (A) (A)
                 (A) (A) (A) (A) (A) (A) (A) (A) (A) (A) (A) (A)
                 (A) (A) (A) (A) (A) (A) (A) (A) (A) (A) (A) (A)
                 (A) (A) (A) (A) (A) (A) (A) (A) (A) (A) (A) (A)
                 (A) (A) (A) (A) (A) (A) (A) (A) (A) (A) (A) (A)
                 (A) (A) (A) (A) (A) (A) (A) (A) (A) (A) (A) (A)
                 (A) (A) (A) (A) (A) (A) (A) (A) (A) (A) (A) (A)
                 (A) (A) (A) (A) (A) (A) (A) (A) (A) (A) (A) (A)
                 (A) (A) (A) (A) (A) (A) (A) (A) (A) (A) (A) (A)
                 (A) (A) (A) (A) (A) (A) (A) (A) (A) (A) (A) (A)
                 (A) (A) (A) (A) (A) (A) (A) (A) (A) (A) (A) (A)
                 (A) (A) (A) (A) (A) (A) (A) (A) (A) (A) (A) (A)
                 (A) (A) (A) (A) (A) (A) (A) (A) (A) (A) (A) (A)
                 (A) (A) (A) (A) (A) (A) (A) (A) (A) (A) (A) (A)
                 (A) (A) (A) (A) (A) (A) (A) (A) (A) (A) (A) (A)
                 (A) (A) (A) (A) (A) (A) (A) (A) (A) (A) (A) (A)
                 (A) (A) (A) (A) (A) (A) (A) (A) (A) (A) (A) (A)
                 (A) (A) (A) (A) (A) (A) (A) (A) (A) (A) (A) (A)
                 (A) (A) (A) (A) (A) (A) (A) (A) (A) (A) (A) (A)
                 (A) (A) (A) (A) (A) (A) (A) (A) (A) (A) (A) (A)
                 (A) (A) (A) (A) (A) (A) (A)
 The electronic state is 1-A.
 Alpha  occ. eigenvalues --  -19.24064 -19.24059 -14.64322 -14.44667 -14.40928
 Alpha  occ. eigenvalues --  -10.35447 -10.32038 -10.31675 -10.30615 -10.30588
 Alpha  occ. eigenvalues --  -10.30009 -10.28919  -1.33405  -1.15428  -1.06981
 Alpha  occ. eigenvalues --   -1.01509  -0.99253  -0.90765  -0.89244  -0.79756
 Alpha  occ. eigenvalues --   -0.76912  -0.71884  -0.66902  -0.65089  -0.63564
 Alpha  occ. eigenvalues --   -0.63068  -0.60649  -0.59426  -0.55910  -0.54881
 Alpha  occ. eigenvalues --   -0.52835  -0.52232  -0.47307  -0.45365  -0.45110
 Alpha  occ. eigenvalues --   -0.43586  -0.43164  -0.39368  -0.39090  -0.37711
 Alpha  occ. eigenvalues --   -0.35646  -0.30990
 Alpha virt. eigenvalues --   -0.05460  -0.03203   0.00938   0.02743   0.03306
 Alpha virt. eigenvalues --    0.03535   0.05532   0.06281   0.06631   0.07174
 Alpha virt. eigenvalues --    0.09336   0.09924   0.10175   0.10800   0.10961
 Alpha virt. eigenvalues --    0.11891   0.13284   0.13686   0.13733   0.14206
 Alpha virt. eigenvalues --    0.15365   0.15597   0.16164   0.17276   0.17782
 Alpha virt. eigenvalues --    0.18644   0.19386   0.19839   0.20207   0.20318
 Alpha virt. eigenvalues --    0.20709   0.22256   0.22551   0.23274   0.23511
 Alpha virt. eigenvalues --    0.24028   0.24358   0.24708   0.25869   0.26460
 Alpha virt. eigenvalues --    0.26881   0.26976   0.27329   0.28322   0.28381
 Alpha virt. eigenvalues --    0.29194   0.29411   0.30135   0.30668   0.31347
 Alpha virt. eigenvalues --    0.31405   0.31938   0.33168   0.33725   0.34731
 Alpha virt. eigenvalues --    0.35063   0.35863   0.36367   0.36817   0.37248
 Alpha virt. eigenvalues --    0.37514   0.38084   0.38304   0.39621   0.39742
 Alpha virt. eigenvalues --    0.39845   0.40300   0.41297   0.41597   0.43073
 Alpha virt. eigenvalues --    0.43743   0.44152   0.44719   0.45651   0.45827
 Alpha virt. eigenvalues --    0.46296   0.46710   0.47285   0.47583   0.47787
 Alpha virt. eigenvalues --    0.48653   0.49795   0.49938   0.50416   0.51017
 Alpha virt. eigenvalues --    0.52043   0.52650   0.53433   0.54506   0.54895
 Alpha virt. eigenvalues --    0.55068   0.55932   0.56154   0.56858   0.57221
 Alpha virt. eigenvalues --    0.58683   0.58851   0.59500   0.59767   0.60641
 Alpha virt. eigenvalues --    0.61468   0.61646   0.62203   0.62289   0.63112
 Alpha virt. eigenvalues --    0.63659   0.64286   0.65473   0.65755   0.65970
 Alpha virt. eigenvalues --    0.66685   0.66744   0.67349   0.67795   0.69996
 Alpha virt. eigenvalues --    0.70021   0.70173   0.70957   0.71256   0.71794
 Alpha virt. eigenvalues --    0.72253   0.73702   0.74479   0.74775   0.75502
 Alpha virt. eigenvalues --    0.75654   0.76112   0.76194   0.77567   0.77905
 Alpha virt. eigenvalues --    0.77941   0.79154   0.79876   0.80522   0.80602
 Alpha virt. eigenvalues --    0.81715   0.82524   0.83536   0.84600   0.85451
 Alpha virt. eigenvalues --    0.85869   0.86083   0.86919   0.87563   0.88383
 Alpha virt. eigenvalues --    0.88425   0.91987   0.93047   0.94475   0.94735
 Alpha virt. eigenvalues --    0.95462   0.96359   0.97768   0.98337   0.98723
 Alpha virt. eigenvalues --    1.00451   1.01625   1.02197   1.03235   1.03400
 Alpha virt. eigenvalues --    1.03653   1.04773   1.05841   1.07499   1.08188
 Alpha virt. eigenvalues --    1.10257   1.11957   1.12283   1.12836   1.15539
 Alpha virt. eigenvalues --    1.16246   1.16962   1.17461   1.17935   1.20396
 Alpha virt. eigenvalues --    1.21636   1.23116   1.26113   1.28356   1.29373
 Alpha virt. eigenvalues --    1.31247   1.31452   1.34305   1.35874   1.36480
 Alpha virt. eigenvalues --    1.37576   1.41772   1.43025   1.43160   1.44687
 Alpha virt. eigenvalues --    1.47688   1.48327   1.49028   1.50956   1.52382
 Alpha virt. eigenvalues --    1.54141   1.54260   1.56461   1.58733   1.59177
 Alpha virt. eigenvalues --    1.59340   1.63072   1.64614   1.66105   1.67624
 Alpha virt. eigenvalues --    1.68342   1.70604   1.71282   1.73529   1.74890
 Alpha virt. eigenvalues --    1.75750   1.76758   1.79005   1.81293   1.81711
 Alpha virt. eigenvalues --    1.83732   1.84337   1.85322   1.88351   1.88459
 Alpha virt. eigenvalues --    1.90162   1.90196   1.91764   1.94142   1.94651
 Alpha virt. eigenvalues --    1.95284   1.96093   1.97585   1.99756   2.00989
 Alpha virt. eigenvalues --    2.01418   2.04020   2.08317   2.09425   2.10339
 Alpha virt. eigenvalues --    2.11409   2.12433   2.18468   2.19088   2.20201
 Alpha virt. eigenvalues --    2.20553   2.23495   2.25032   2.29556   2.31801
 Alpha virt. eigenvalues --    2.32688   2.33497   2.35049   2.36618   2.38115
 Alpha virt. eigenvalues --    2.40199   2.41348   2.42446   2.43301   2.47099
 Alpha virt. eigenvalues --    2.51835   2.52020   2.52621   2.53534   2.55701
 Alpha virt. eigenvalues --    2.62669   2.63997   2.64113   2.65245   2.67176
 Alpha virt. eigenvalues --    2.67978   2.69815   2.71536   2.72693   2.74376
 Alpha virt. eigenvalues --    2.75950   2.78347   2.78799   2.82246   2.83398
 Alpha virt. eigenvalues --    2.84226   2.86458   2.87119   2.88258   2.89928
 Alpha virt. eigenvalues --    2.91192   2.91398   2.94268   2.94587   2.95221
 Alpha virt. eigenvalues --    2.99695   3.00902   3.01429   3.05946   3.06407
 Alpha virt. eigenvalues --    3.09864   3.10479   3.10692   3.11077   3.11786
 Alpha virt. eigenvalues --    3.14010   3.14505   3.15387   3.17432   3.17993
 Alpha virt. eigenvalues --    3.19867   3.21943   3.22903   3.23597   3.27954
 Alpha virt. eigenvalues --    3.28843   3.30279   3.31942   3.33139   3.33985
 Alpha virt. eigenvalues --    3.35331   3.37847   3.39243   3.40247   3.41111
 Alpha virt. eigenvalues --    3.41590   3.43952   3.45301   3.48351   3.49050
 Alpha virt. eigenvalues --    3.50785   3.51191   3.52196   3.54356   3.55136
 Alpha virt. eigenvalues --    3.57549   3.58798   3.59396   3.60368   3.61051
 Alpha virt. eigenvalues --    3.61593   3.63377   3.67574   3.70827   3.72417
 Alpha virt. eigenvalues --    3.74567   3.77599   3.79564   3.79998   3.82777
 Alpha virt. eigenvalues --    3.87118   3.89151   3.90421   3.93870   3.96618
 Alpha virt. eigenvalues --    4.02255   4.02890   4.05194   4.09242   4.09910
 Alpha virt. eigenvalues --    4.10796   4.13130   4.16184   4.17778   4.18904
 Alpha virt. eigenvalues --    4.20248   4.24042   4.26199   4.26957   4.29804
 Alpha virt. eigenvalues --    4.31388   4.31567   4.35795   4.37149   4.38549
 Alpha virt. eigenvalues --    4.40128   4.43365   4.50566   4.53086   4.64515
 Alpha virt. eigenvalues --    4.65847   4.67853   4.68246   4.74393   4.75268
 Alpha virt. eigenvalues --    4.78148   4.78588   4.79918   4.80451   4.83175
 Alpha virt. eigenvalues --    4.83267   4.85357   4.88360   4.91648   4.91786
 Alpha virt. eigenvalues --    4.93817   4.94963   4.95763   4.99158   5.03907
 Alpha virt. eigenvalues --    5.08217   5.13581   5.15945   5.19817   5.19947
 Alpha virt. eigenvalues --    5.21391   5.21887   5.23183   5.30741   5.31721
 Alpha virt. eigenvalues --    5.34290   5.38230   5.40995   5.41068   5.42868
 Alpha virt. eigenvalues --    5.46410   5.47832   5.49850   5.57052   5.58056
 Alpha virt. eigenvalues --    5.65124   5.69520   5.70991   5.71087   5.76583
 Alpha virt. eigenvalues --    5.79915   5.87363   5.88072   5.96352   6.02909
 Alpha virt. eigenvalues --    6.11168   6.18984   6.29849   6.43401   6.44256
 Alpha virt. eigenvalues --    6.45655   6.52453   6.59339   6.61389   6.63240
 Alpha virt. eigenvalues --    6.94157   6.95411   6.98708   7.13055   7.32100
 Alpha virt. eigenvalues --    7.46281   7.57986   7.78666   7.82416  22.72779
 Alpha virt. eigenvalues --   22.96817  23.01943  23.12945  23.26165  23.56264
 Alpha virt. eigenvalues --   23.85084  32.49039  32.64117  32.88070  44.47398
 Alpha virt. eigenvalues --   44.67736
          Condensed to atoms (all electrons):
               1          2          3          4          5          6
     1  C    7.112292   0.181669  -0.251258   0.046796  -0.426091   0.234476
     2  C    0.181669   6.040575   0.342593  -0.108394   0.160148  -0.472625
     3  C   -0.251258   0.342593   6.191948   0.147519  -0.235005  -0.011034
     4  C    0.046796  -0.108394   0.147519   7.075128  -0.415305  -0.678681
     5  C   -0.426091   0.160148  -0.235005  -0.415305   7.202520  -0.473983
     6  C    0.234476  -0.472625  -0.011034  -0.678681  -0.473983   7.901898
     7  H    0.223718  -0.064972   0.011045   0.004225   0.038602  -0.083817
     8  H   -0.002344  -0.097690   0.331798  -0.054770   0.009385  -0.007277
     9  H   -0.004644   0.012957  -0.044361   0.463723  -0.251515   0.008827
    10  N   -0.179838   0.523631  -0.207949  -0.003537   0.007255  -0.006489
    11  O    0.026687  -0.093156   0.011424   0.011870  -0.005842  -0.011956
    12  O   -0.021723  -0.076851   0.023936  -0.004576  -0.004341   0.033258
    13  N   -0.010040   0.010525  -0.008693  -0.038328   0.090619  -0.025787
    14  H   -0.000093   0.003520  -0.000109   0.055822  -0.091403  -0.041076
    15  H   -0.000923  -0.001162   0.000115  -0.037270   0.029643  -0.015876
    16  C   -0.543826  -0.123231   0.013651   0.096410  -0.368320  -0.403239
    17  N    0.044381   0.004514   0.001338   0.003294   0.021641  -0.100494
               7          8          9         10         11         12
     1  C    0.223718  -0.002344  -0.004644  -0.179838   0.026687  -0.021723
     2  C   -0.064972  -0.097690   0.012957   0.523631  -0.093156  -0.076851
     3  C    0.011045   0.331798  -0.044361  -0.207949   0.011424   0.023936
     4  C    0.004225  -0.054770   0.463723  -0.003537   0.011870  -0.004576
     5  C    0.038602   0.009385  -0.251515   0.007255  -0.005842  -0.004341
     6  C   -0.083817  -0.007277   0.008827  -0.006489  -0.011956   0.033258
     7  H    0.353939   0.000930  -0.000413   0.000781  -0.002361  -0.005287
     8  H    0.000930   0.376993  -0.007719   0.002859   0.001133  -0.002298
     9  H   -0.000413  -0.007719   0.512535  -0.000435   0.000456   0.000084
    10  N    0.000781   0.002859  -0.000435   5.775132   0.089414   0.098057
    11  O   -0.002361   0.001133   0.000456   0.089414   8.663770  -0.107592
    12  O   -0.005287  -0.002298   0.000084   0.098057  -0.107592   8.651833
    13  N   -0.000532  -0.000549   0.019866  -0.000156   0.000066   0.000140
    14  H    0.000093  -0.000046   0.015839  -0.000032   0.000027   0.000001
    15  H   -0.000252   0.000038  -0.004473   0.000019   0.000006   0.000008
    16  C    0.019382   0.000136   0.003415  -0.001738   0.001240  -0.005006
    17  N    0.000560   0.000018  -0.000040  -0.000227   0.000001  -0.000029
              13         14         15         16         17
     1  C   -0.010040  -0.000093  -0.000923  -0.543826   0.044381
     2  C    0.010525   0.003520  -0.001162  -0.123231   0.004514
     3  C   -0.008693  -0.000109   0.000115   0.013651   0.001338
     4  C   -0.038328   0.055822  -0.037270   0.096410   0.003294
     5  C    0.090619  -0.091403   0.029643  -0.368320   0.021641
     6  C   -0.025787  -0.041076  -0.015876  -0.403239  -0.100494
     7  H   -0.000532   0.000093  -0.000252   0.019382   0.000560
     8  H   -0.000549  -0.000046   0.000038   0.000136   0.000018
     9  H    0.019866   0.015839  -0.004473   0.003415  -0.000040
    10  N   -0.000156  -0.000032   0.000019  -0.001738  -0.000227
    11  O    0.000066   0.000027   0.000006   0.001240   0.000001
    12  O    0.000140   0.000001   0.000008  -0.005006  -0.000029
    13  N    6.450000   0.436715   0.421370   0.026404  -0.005964
    14  H    0.436715   0.550194  -0.081762   0.004292  -0.001161
    15  H    0.421370  -0.081762   0.488769  -0.007623   0.011401
    16  C    0.026404   0.004292  -0.007623   7.524987  -0.252229
    17  N   -0.005964  -0.001161   0.011401  -0.252229   7.551581
 Mulliken charges:
               1
     1  C   -0.429238
     2  C   -0.242052
     3  C   -0.316958
     4  C   -0.563927
     5  C    0.711992
     6  C    0.153874
     7  H    0.504359
     8  H    0.449400
     9  H    0.275898
    10  N    0.903253
    11  O   -0.585187
    12  O   -0.579613
    13  N   -0.365655
    14  H    0.149178
    15  H    0.197970
    16  C    0.015295
    17  N   -0.278588
 Sum of Mulliken charges =   0.00000
 Mulliken charges with hydrogens summed into heavy atoms:
               1
     1  C    0.075120
     2  C   -0.242052
     3  C    0.132442
     4  C   -0.288028
     5  C    0.711992
     6  C    0.153874
    10  N    0.903253
    11  O   -0.585187
    12  O   -0.579613
    13  N   -0.018508
    16  C    0.015295
    17  N   -0.278588
 Electronic spatial extent (au):  <R**2>=           2149.6328
 Charge=              0.0000 electrons
 Dipole moment (field-independent basis, Debye):
    X=              3.4058    Y=              5.1813    Z=             -0.0095  Tot=              6.2004
 Quadrupole moment (field-independent basis, Debye-Ang):
   XX=            -84.2881   YY=            -66.6812   ZZ=            -69.4690
   XY=             11.5309   XZ=             -0.0052   YZ=             -0.0193
 Traceless Quadrupole moment (field-independent basis, Debye-Ang):
   XX=            -10.8086   YY=              6.7982   ZZ=              4.0105
   XY=             11.5309   XZ=             -0.0052   YZ=             -0.0193
 Octapole moment (field-independent basis, Debye-Ang**2):
  XXX=             34.8982  YYY=             41.6703  ZZZ=              0.0138  XYY=             -8.2242
  XXY=             61.0248  XXZ=             -0.0322  XZZ=            -12.4564  YZZ=             -3.2987
  YYZ=             -0.0286  XYZ=             -0.1273
 Hexadecapole moment (field-independent basis, Debye-Ang**3):
 XXXX=          -2186.4448 YYYY=           -710.5581 ZZZZ=            -71.9274 XXXY=            192.3312
 XXXZ=              0.0186 YYYX=            103.8758 YYYZ=             -0.1729 ZZZX=             -0.0480
 ZZZY=             -0.0349 XXYY=           -513.6107 XXZZ=           -342.4079 YYZZ=           -144.8795
 XXYZ=             -0.2084 YYXZ=              0.0866 ZZXY=              5.9186
 N-N= 6.355807385931D+02 E-N=-2.635312790983D+03  KE= 5.820892240490D+02
 PrsmSu:  requested number of processors reduced to:   4 ShMem   1 Linda.
 Calling FoFJK, ICntrl=      2127 FMM=F ISym2X=0 I1Cent= 0 IOpClX= 0 NMat=1 NMatS=1 NMatT=0.
 ***** Axes restored to original set *****
 -------------------------------------------------------------------
 Center     Atomic                   Forces (Hartrees/Bohr)
 Number     Number              X              Y              Z
 -------------------------------------------------------------------
      1        6          -0.000062109   -0.000052367   -0.000091924
      2        6          -0.000050353    0.000112063   -0.000016525
      3        6           0.000082392   -0.000076566   -0.000063224
      4        6           0.000107636    0.000001023   -0.000040027
      5        6           0.000026726   -0.000016902   -0.000076170
      6        6          -0.000296184   -0.000032818    0.000082392
      7        1           0.000004945    0.000126528    0.000099612
      8        1          -0.000076331    0.000057580   -0.000156141
      9        1          -0.000024760   -0.000125910   -0.000130396
     10        7           0.000071451    0.000041197   -0.000178100
     11        8          -0.000060435    0.000256278    0.000107676
     12        8          -0.000032822    0.000070019    0.000147111
     13        7          -0.000086549   -0.000060359   -0.000038568
     14        1          -0.000019742   -0.000164827   -0.000118402
     15        1           0.000054790   -0.000118075    0.000122069
     16        6           0.000423410    0.000102141    0.000078024
     17        7          -0.000062064   -0.000119005    0.000272593
 -------------------------------------------------------------------
 Cartesian Forces:  Max     0.000423410 RMS     0.000123417

 GradGradGradGradGradGradGradGradGradGradGradGradGradGradGradGradGradGrad
 Berny optimization.
 FormGI is forming the generalized inverse of G from B-inverse, IUseBI=4.
 Internal  Forces:  Max     0.000533369 RMS     0.000175940
 Search for a local minimum.
 Step number   1 out of a maximum of   85
 All quantities printed in internal units (Hartrees-Bohrs-Radians)
 Mixed Optimization -- En-DIIS/RFO-DIIS
 Second derivative matrix not updated -- first step.
 ITU=  0
     Eigenvalues ---    0.00941   0.00941   0.01897   0.02028   0.02114
     Eigenvalues ---    0.02143   0.02250   0.02298   0.02325   0.02348
     Eigenvalues ---    0.02349   0.02355   0.02389   0.05040   0.05040
     Eigenvalues ---    0.16000   0.16000   0.16000   0.16000   0.16000
     Eigenvalues ---    0.22365   0.23497   0.24606   0.25000   0.25000
     Eigenvalues ---    0.25000   0.25000   0.25000   0.35800   0.36075
     Eigenvalues ---    0.36090   0.37369   0.41558   0.41698   0.42982
     Eigenvalues ---    0.45874   0.46798   0.47067   0.47273   0.49073
     Eigenvalues ---    0.50283   0.54943   0.97791   0.98166   1.36791
 RFO step:  Lambda=-1.21387266D-05 EMin= 9.40545892D-03
 Linear search not attempted -- first point.
 Iteration  1 RMS(Cart)=  0.00352866 RMS(Int)=  0.00000934
 Iteration  2 RMS(Cart)=  0.00001166 RMS(Int)=  0.00000345
 Iteration  3 RMS(Cart)=  0.00000000 RMS(Int)=  0.00000345
 Variable       Old X    -DE/DX   Delta X   Delta X   Delta X     New X
                                 (Linear)    (Quad)   (Total)
    R1        2.59897   0.00014   0.00000   0.00025   0.00025   2.59923
    R2        2.61846   0.00020   0.00000   0.00040   0.00040   2.61886
    R3        2.03940   0.00015   0.00000   0.00043   0.00043   2.03983
    R4        2.62490   0.00032   0.00000   0.00068   0.00068   2.62558
    R5        2.75294   0.00036   0.00000   0.00097   0.00097   2.75391
    R6        2.58904   0.00035   0.00000   0.00071   0.00071   2.58975
    R7        2.03965   0.00018   0.00000   0.00050   0.00050   2.04014
    R8        2.65074   0.00029   0.00000   0.00066   0.00066   2.65140
    R9        2.04396   0.00018   0.00000   0.00050   0.00050   2.04446
   R10        2.66774   0.00036   0.00000   0.00082   0.00082   2.66856
   R11        2.55183   0.00033   0.00000   0.00060   0.00060   2.55243
   R12        2.69309   0.00040   0.00000   0.00095   0.00095   2.69405
   R13        2.29537   0.00002   0.00000   0.00002   0.00002   2.29539
   R14        2.29382   0.00016   0.00000   0.00016   0.00016   2.29398
   R15        1.89422   0.00019   0.00000   0.00041   0.00041   1.89463
   R16        1.89941   0.00017   0.00000   0.00037   0.00037   1.89978
   R17        2.16726   0.00027   0.00000   0.00020   0.00020   2.16745
    A1        2.08103   0.00025   0.00000   0.00101   0.00101   2.08204
    A2        2.09452  -0.00017   0.00000  -0.00081  -0.00081   2.09371
    A3        2.10764  -0.00007   0.00000  -0.00020  -0.00020   2.10744
    A4        2.11487  -0.00014   0.00000  -0.00061  -0.00061   2.11426
    A5        2.08394  -0.00040   0.00000  -0.00155  -0.00155   2.08239
    A6        2.08437   0.00053   0.00000   0.00216   0.00216   2.08654
    A7        2.09133  -0.00003   0.00000  -0.00010  -0.00010   2.09123
    A8        2.07849   0.00004   0.00000   0.00019   0.00019   2.07868
    A9        2.11336  -0.00001   0.00000  -0.00008  -0.00008   2.11327
   A10        2.10950   0.00009   0.00000   0.00047   0.00047   2.10997
   A11        2.09381  -0.00002   0.00000  -0.00004  -0.00004   2.09377
   A12        2.07987  -0.00008   0.00000  -0.00043  -0.00043   2.07944
   A13        2.06100  -0.00008   0.00000  -0.00032  -0.00032   2.06068
   A14        2.11452  -0.00003   0.00000  -0.00013  -0.00013   2.11439
   A15        2.10766   0.00011   0.00000   0.00045   0.00045   2.10811
   A16        2.10863  -0.00009   0.00000  -0.00044  -0.00045   2.10819
   A17        2.11271  -0.00019   0.00000  -0.00072  -0.00072   2.11199
   A18        2.06184   0.00028   0.00000   0.00117   0.00117   2.06301
   A19        2.05159   0.00043   0.00000   0.00174   0.00172   2.05331
   A20        2.05661  -0.00022   0.00000  -0.00089  -0.00091   2.05569
   A21        2.17499  -0.00021   0.00000  -0.00084  -0.00086   2.17414
   A22        2.10628   0.00005   0.00000   0.00033   0.00033   2.10660
   A23        2.11314   0.00002   0.00000   0.00012   0.00012   2.11326
   A24        2.06369  -0.00007   0.00000  -0.00045  -0.00045   2.06323
   A25        3.06700   0.00010   0.00000   0.00199   0.00199   3.06898
   A26        3.13925   0.00029   0.00000   0.00574   0.00574   3.14499
    D1        0.00128  -0.00002   0.00000  -0.00070  -0.00070   0.00058
    D2       -3.14071  -0.00001   0.00000  -0.00039  -0.00039  -3.14110
    D3       -3.13963  -0.00004   0.00000  -0.00178  -0.00178  -3.14142
    D4        0.00156  -0.00003   0.00000  -0.00147  -0.00147   0.00009
    D5        0.00101  -0.00002   0.00000  -0.00089  -0.00089   0.00012
    D6       -3.13729  -0.00009   0.00000  -0.00450  -0.00450   3.14140
    D7       -3.14126   0.00001   0.00000   0.00020   0.00020  -3.14106
    D8        0.00362  -0.00007   0.00000  -0.00341  -0.00341   0.00022
    D9       -0.00175   0.00003   0.00000   0.00119   0.00119  -0.00056
   D10        3.14104  -0.00001   0.00000  -0.00031  -0.00031   3.14072
   D11        3.14024   0.00002   0.00000   0.00088   0.00088   3.14112
   D12       -0.00015  -0.00001   0.00000  -0.00062  -0.00063  -0.00078
   D13       -3.14026   0.00004   0.00000   0.00454   0.00454  -3.13571
   D14        0.00219  -0.00006   0.00000  -0.00581  -0.00581  -0.00362
   D15        0.00094   0.00005   0.00000   0.00485   0.00485   0.00579
   D16       -3.13979  -0.00005   0.00000  -0.00551  -0.00551   3.13788
   D17       -0.00010   0.00000   0.00000  -0.00008  -0.00008  -0.00018
   D18       -3.14023  -0.00003   0.00000  -0.00153  -0.00153   3.14143
   D19        3.14027   0.00003   0.00000   0.00146   0.00146  -3.14145
   D20        0.00014   0.00000   0.00000   0.00000   0.00000   0.00015
   D21        0.00230  -0.00003   0.00000  -0.00145  -0.00145   0.00085
   D22       -3.13819  -0.00004   0.00000  -0.00196  -0.00196  -3.14015
   D23       -3.14075   0.00000   0.00000  -0.00001  -0.00001  -3.14075
   D24        0.00195  -0.00001   0.00000  -0.00052  -0.00052   0.00143
   D25       -0.00276   0.00004   0.00000   0.00194   0.00194  -0.00082
   D26        3.13563   0.00011   0.00000   0.00545   0.00545   3.14108
   D27        3.13773   0.00005   0.00000   0.00245   0.00245   3.14018
   D28       -0.00706   0.00012   0.00000   0.00595   0.00596  -0.00111
   D29       -0.00709  -0.00001   0.00000  -0.00036  -0.00036  -0.00745
   D30       -3.13471   0.00000   0.00000   0.00004   0.00004  -3.13466
   D31        3.13564  -0.00002   0.00000  -0.00088  -0.00088   3.13475
   D32        0.00802  -0.00001   0.00000  -0.00048  -0.00048   0.00754
         Item               Value     Threshold  Converged?
 Maximum Force            0.000533     0.000015     NO 
 RMS     Force            0.000176     0.000010     NO 
 Maximum Displacement     0.009936     0.000060     NO 
 RMS     Displacement     0.003530     0.000040     NO 
 Predicted change in Energy=-6.069399D-06
 GradGradGradGradGradGradGradGradGradGradGradGradGradGradGradGradGradGrad

                          Input orientation:                          
 ---------------------------------------------------------------------
 Center     Atomic      Atomic             Coordinates (Angstroms)
 Number     Number       Type             X           Y           Z
 ---------------------------------------------------------------------
      1          6           0        0.070252    0.869816    0.939480
      2          6           0       -0.276269    1.452531   -0.257280
      3          6           0       -0.409662    0.694043   -1.413709
      4          6           0       -0.193439   -0.658530   -1.370256
      5          6           0        0.162534   -1.292969   -0.170525
      6          6           0        0.290141   -0.497561    0.989299
      7          1           0        0.168462    1.477239    1.826365
      8          1           0       -0.683807    1.185328   -2.335129
      9          1           0       -0.296808   -1.251429   -2.269285
     10          7           0       -0.506994    2.890478   -0.310298
     11          8           0       -0.817575    3.372364   -1.381157
     12          8           0       -0.385507    3.521396    0.719650
     13          7           0        0.378453   -2.625411   -0.122212
     14          1           0        0.281800   -3.189783   -0.945215
     15          1           0        0.627706   -3.079891    0.739176
     16          6           0        0.651102   -1.139380    2.210032
     17          7           0        0.939611   -1.728239    3.151064
 ---------------------------------------------------------------------
                    Distance matrix (angstroms):
                    1          2          3          4          5
     1  C    0.000000
     2  C    1.375453   0.000000
     3  C    2.408053   1.389398   0.000000
     4  C    2.782132   2.387918   1.370436   0.000000
     5  C    2.432749   2.781698   2.412703   1.403063   0.000000
     6  C    1.385840   2.382780   2.772020   2.413972   1.412143
     7  H    1.079431   2.130721   3.383150   3.861459   3.414917
     8  H    3.375088   2.134230   1.079597   2.138049   3.397611
     9  H    3.864012   3.370458   2.128287   1.081882   2.148841
    10  N    2.445043   1.457305   2.459943   3.717161   4.238990
    11  O    3.526520   2.289514   2.709402   4.078943   4.918494
    12  O    2.699429   2.290530   3.541995   4.677219   4.926547
    13  N    3.665896   4.132374   3.647995   2.398603   1.350688
    14  H    4.480756   4.726073   3.972620   2.610316   2.052382
    15  H    3.993878   4.727890   4.466948   3.314660   2.058405
    16  C    2.447153   3.696708   4.197400   3.709842   2.435024
    17  N    3.520906   4.817932   5.340894   4.782302   3.438933
                    6          7          8          9         10
     6  C    0.000000
     7  H    2.148329   0.000000
     8  H    3.851300   4.257887   0.000000
     9  H    3.395762   4.943324   2.468176   0.000000
    10  N    3.715264   2.649305   2.653062   4.586633   0.000000
    11  O    4.671448   3.853825   2.389787   4.737028   1.214666
    12  O    4.084265   2.389618   3.857184   5.632181   1.213923
    13  N    2.402291   4.546733   4.532895   2.636993   5.589672
    14  H    3.315188   5.429143   4.691040   2.417677   6.164000
    15  H    2.616284   4.707475   5.418811   3.639896   6.167192
    16  C    1.425628   2.688278   5.276812   4.579888   4.892138
    17  N    2.570916   3.553109   6.420489   5.579988   5.950315
                   11         12         13         14         15
    11  O    0.000000
    12  O    2.149950   0.000000
    13  N    6.244096   6.251048   0.000000
    14  H    6.667867   6.946725   1.002593   0.000000
    15  H    6.943792   6.678620   1.005320   1.723051   0.000000
    16  C    5.950588   5.001863   2.778847   3.781022   2.435066
    17  N    7.045913   5.935181   3.440080   4.398674   2.782346
                   16         17
    16  C    0.000000
    17  N    1.146967   0.000000
 Stoichiometry    C7H5N3O2
 Framework group  C1[X(C7H5N3O2)]
 Deg. of freedom    45
 Full point group                 C1      NOp   1
 Largest Abelian subgroup         C1      NOp   1
 Largest concise Abelian subgroup C1      NOp   1
                         Standard orientation:                         
 ---------------------------------------------------------------------
 Center     Atomic      Atomic             Coordinates (Angstroms)
 Number     Number       Type             X           Y           Z
 ---------------------------------------------------------------------
      1          6           0       -0.134084   -0.857150    0.001408
      2          6           0       -1.137365    0.083752    0.001467
      3          6           0       -0.847921    1.442666    0.000258
      4          6           0        0.456951    1.861477   -0.000352
      5          6           0        1.510813    0.935217    0.000439
      6          6           0        1.187282   -0.439365    0.000823
      7          1           0       -0.380606   -1.908053    0.002195
      8          1           0       -1.661172    2.152704   -0.000476
      9          1           0        0.685019    2.919046   -0.001449
     10          7           0       -2.527026   -0.355089    0.002706
     11          8           0       -3.388493    0.501210   -0.003602
     12          8           0       -2.743187   -1.549608   -0.000241
     13          7           0        2.798693    1.342307    0.001512
     14          1           0        3.026933    2.318555   -0.004657
     15          1           0        3.553054    0.677793   -0.003888
     16          6           0        2.255901   -1.383012    0.000978
     17          7           0        3.168441   -2.077841   -0.002948
 ---------------------------------------------------------------------
 Rotational constants (GHZ):      1.9176573      0.6307149      0.4746153
 Basis read from rwf:  (5D, 7F)
 There are   567 symmetry adapted cartesian basis functions of A   symmetry.
 There are   495 symmetry adapted basis functions of A   symmetry.
   495 basis functions,   757 primitive gaussians,   567 cartesian basis functions
    42 alpha electrons       42 beta electrons
       nuclear repulsion energy       635.4111910860 Hartrees.
 NAtoms=   17 NActive=   17 NUniq=   17 SFac= 1.00D+00 NAtFMM=   60 NAOKFM=F Big=F
 Integral buffers will be    262144 words long.
 Raffenetti 2 integral format.
 Two-electron integral symmetry is turned on.
 One-electron integrals computed using PRISM.
 PrsmSu:  requested number of processors reduced to:   4 ShMem   1 Linda.
 NBasis=   495 RedAO= T EigKep=  1.23D-06  NBF=   495
 NBsUse=   493 1.00D-06 EigRej=  8.20D-07 NBFU=   493
 Initial guess from the checkpoint file:  "Z:\home\jakler\matheus\cn_s0.chk"
 B after Tr=     0.000000    0.000000    0.000000
         Rot=    1.000000    0.000001   -0.000001    0.000170 Ang=   0.02 deg.
 Gradient too large for Newton-Raphson -- use scaled steepest descent instead.
     Accept linear search using points  3 and  4.
 Gradient too large for Newton-Raphson -- use scaled steepest descent instead.
     Accept linear search using points  1 and  2.
 LinEq1:  Iter=  0 NonCon=     1 RMS=2.69D-05 Max=1.28D-03 NDo=     1
 AX will form     1 AO Fock derivatives at one time.
 LinEq1:  Iter=  1 NonCon=     1 RMS=3.59D-06 Max=2.72D-04 NDo=     1
 LinEq1:  Iter=  2 NonCon=     1 RMS=3.17D-06 Max=2.43D-04 NDo=     1
 LinEq1:  Iter=  3 NonCon=     1 RMS=1.89D-06 Max=7.89D-05 NDo=     1
 LinEq1:  Iter=  4 NonCon=     1 RMS=1.13D-06 Max=3.75D-05 NDo=     1
 LinEq1:  Iter=  5 NonCon=     1 RMS=7.61D-07 Max=2.53D-05 NDo=     1
 LinEq1:  Iter=  6 NonCon=     1 RMS=3.59D-07 Max=1.16D-05 NDo=     1
 LinEq1:  Iter=  7 NonCon=     1 RMS=2.02D-07 Max=6.20D-06 NDo=     1
 LinEq1:  Iter=  8 NonCon=     1 RMS=1.21D-07 Max=4.43D-06 NDo=     1
 LinEq1:  Iter=  9 NonCon=     1 RMS=8.84D-08 Max=3.67D-06 NDo=     1
 LinEq1:  Iter= 10 NonCon=     1 RMS=4.29D-08 Max=2.73D-06 NDo=     1
 LinEq1:  Iter= 11 NonCon=     1 RMS=2.62D-08 Max=1.68D-06 NDo=     1
 LinEq1:  Iter= 12 NonCon=     1 RMS=1.22D-08 Max=5.21D-07 NDo=     1
 LinEq1:  Iter= 13 NonCon=     0 RMS=4.89D-09 Max=1.29D-07 NDo=     1
 Linear equations converged to 1.946D-08 1.946D-07 after    13 iterations.
     Accept linear search using points  1 and  2.
     Minimum is close to point  2 DX= -1.68D-05 DF=  0.00D+00 DXR=  1.68D-05 DFR=  0.00D+00 which will be used.
 LinEq1:  Iter=  0 NonCon=     1 RMS=3.40D-08 Max=2.47D-06 NDo=     1
 LinEq1:  Iter=  1 NonCon=     1 RMS=1.38D-08 Max=3.03D-07 NDo=     1
 LinEq1:  Iter=  2 NonCon=     1 RMS=1.14D-08 Max=4.78D-07 NDo=     1
 LinEq1:  Iter=  3 NonCon=     1 RMS=6.54D-09 Max=3.69D-07 NDo=     1
 LinEq1:  Iter=  4 NonCon=     1 RMS=4.67D-09 Max=2.04D-07 NDo=     1
 LinEq1:  Iter=  5 NonCon=     1 RMS=3.03D-09 Max=1.53D-07 NDo=     1
 LinEq1:  Iter=  6 NonCon=     1 RMS=2.04D-09 Max=9.26D-08 NDo=     1
 LinEq1:  Iter=  7 NonCon=     1 RMS=1.53D-09 Max=6.44D-08 NDo=     1
 LinEq1:  Iter=  8 NonCon=     1 RMS=9.80D-10 Max=5.25D-08 NDo=     1
 LinEq1:  Iter=  9 NonCon=     1 RMS=5.34D-10 Max=2.09D-08 NDo=     1
 LinEq1:  Iter= 10 NonCon=     1 RMS=2.36D-10 Max=1.35D-08 NDo=     1
 LinEq1:  Iter= 11 NonCon=     1 RMS=1.04D-10 Max=4.25D-09 NDo=     1
 LinEq1:  Iter= 12 NonCon=     1 RMS=4.14D-11 Max=1.49D-09 NDo=     1
 LinEq1:  Iter= 13 NonCon=     0 RMS=2.07D-11 Max=4.83D-10 NDo=     1
 Linear equations converged to 7.244D-11 7.244D-10 after    13 iterations.
 SCF Done:  E(RCAM-B3LYP) =  -584.325550645     a.u. after    5 cycles
            Convg  =    0.1179D-08                    35 Fock formations.
              S**2 =  0.0000                  -V/T =  2.0039
 PrsmSu:  requested number of processors reduced to:   4 ShMem   1 Linda.
 Calling FoFJK, ICntrl=      2127 FMM=F ISym2X=0 I1Cent= 0 IOpClX= 0 NMat=1 NMatS=1 NMatT=0.
 ***** Axes restored to original set *****
 -------------------------------------------------------------------
 Center     Atomic                   Forces (Hartrees/Bohr)
 Number     Number              X              Y              Z
 -------------------------------------------------------------------
      1        6           0.000122948   -0.000075901    0.000030863
      2        6           0.000360049    0.000013647   -0.000190036
      3        6           0.000024467    0.000083634    0.000068790
      4        6          -0.000011726    0.000031787    0.000048351
      5        6          -0.000033202    0.000089641    0.000018843
      6        6           0.000125156   -0.000096574   -0.000149116
      7        1          -0.000003343   -0.000000791   -0.000013941
      8        1           0.000010689    0.000007937   -0.000042284
      9        1           0.000009897    0.000003146    0.000003176
     10        7          -0.001621148   -0.000115946    0.000276370
     11        8           0.000601937   -0.000149369   -0.000118178
     12        8           0.000575008    0.000124789   -0.000005699
     13        7          -0.000025351    0.000051379    0.000013380
     14        1           0.000004116   -0.000009470    0.000013530
     15        1           0.000008906    0.000002226   -0.000012640
     16        6          -0.000294719    0.000019280    0.000111861
     17        7           0.000146316    0.000020585   -0.000053270
 -------------------------------------------------------------------
 Cartesian Forces:  Max     0.001621148 RMS     0.000274890

 GradGradGradGradGradGradGradGradGradGradGradGradGradGradGradGradGradGrad
 Berny optimization.
 Using GEDIIS/GDIIS optimizer.
 FormGI is forming the generalized inverse of G from B-inverse, IUseBI=4.
 Internal  Forces:  Max     0.000594877 RMS     0.000154027
 Search for a local minimum.
 Step number   2 out of a maximum of   85
 All quantities printed in internal units (Hartrees-Bohrs-Radians)
 Mixed Optimization -- En-DIIS/RFO-DIIS
 Swapping is turned off.
 Update second derivatives using D2CorX and points    1    2
 DE=  1.87D-06 DEPred=-6.07D-06 R=-3.09D-01
 Trust test=-3.09D-01 RLast= 1.72D-02 DXMaxT set to 1.50D-01
 ITU= -1  0
     Eigenvalues ---    0.00929   0.01060   0.01904   0.02078   0.02134
     Eigenvalues ---    0.02246   0.02293   0.02319   0.02345   0.02348
     Eigenvalues ---    0.02352   0.02384   0.03206   0.05026   0.07503
     Eigenvalues ---    0.15885   0.16000   0.16000   0.16000   0.16002
     Eigenvalues ---    0.21679   0.22995   0.24018   0.24613   0.25000
     Eigenvalues ---    0.25000   0.25000   0.26838   0.35437   0.35923
     Eigenvalues ---    0.36094   0.37140   0.40930   0.41626   0.42936
     Eigenvalues ---    0.45799   0.46523   0.46904   0.47255   0.49113
     Eigenvalues ---    0.49971   0.54693   0.97855   0.98009   1.36518
 En-DIIS/RFO-DIIS IScMMF=        0 using points:     2    1
 RFO step:  Lambda=-6.55909088D-06.
 DidBck=T Rises=F RFO-DIIS coefs:    0.43233    0.56767
 Iteration  1 RMS(Cart)=  0.00638989 RMS(Int)=  0.00006137
 Iteration  2 RMS(Cart)=  0.00006605 RMS(Int)=  0.00003339
 Iteration  3 RMS(Cart)=  0.00000000 RMS(Int)=  0.00003339
 Variable       Old X    -DE/DX   Delta X   Delta X   Delta X     New X
                                 (Linear)    (Quad)   (Total)
    R1        2.59923   0.00002  -0.00014   0.00067   0.00053   2.59976
    R2        2.61886  -0.00006  -0.00023   0.00097   0.00075   2.61960
    R3        2.03983  -0.00001  -0.00024   0.00108   0.00084   2.04067
    R4        2.62558  -0.00012  -0.00039   0.00165   0.00126   2.62684
    R5        2.75391  -0.00007  -0.00055   0.00241   0.00186   2.75577
    R6        2.58975  -0.00006  -0.00040   0.00176   0.00136   2.59111
    R7        2.04014   0.00004  -0.00028   0.00132   0.00104   2.04118
    R8        2.65140  -0.00004  -0.00038   0.00166   0.00128   2.65269
    R9        2.04446  -0.00001  -0.00028   0.00128   0.00100   2.04546
   R10        2.66856  -0.00011  -0.00047   0.00200   0.00154   2.67010
   R11        2.55243  -0.00005  -0.00034   0.00150   0.00116   2.55359
   R12        2.69405  -0.00001  -0.00054   0.00245   0.00190   2.69595
   R13        2.29539  -0.00011  -0.00001   0.00001  -0.00001   2.29538
   R14        2.29398   0.00012  -0.00009   0.00047   0.00037   2.29436
   R15        1.89463  -0.00001  -0.00023   0.00104   0.00081   1.89543
   R16        1.89978  -0.00001  -0.00021   0.00093   0.00072   1.90050
   R17        2.16745  -0.00002  -0.00011   0.00050   0.00039   2.16784
    A1        2.08204  -0.00002  -0.00057   0.00256   0.00199   2.08403
    A2        2.09371   0.00000   0.00046  -0.00209  -0.00163   2.09207
    A3        2.10744   0.00002   0.00011  -0.00047  -0.00036   2.10708
    A4        2.11426   0.00003   0.00035  -0.00150  -0.00115   2.11311
    A5        2.08239   0.00012   0.00088  -0.00378  -0.00290   2.07949
    A6        2.08654  -0.00016  -0.00123   0.00528   0.00405   2.09059
    A7        2.09123  -0.00003   0.00006  -0.00033  -0.00027   2.09096
    A8        2.07868   0.00003  -0.00011   0.00054   0.00044   2.07912
    A9        2.11327   0.00000   0.00005  -0.00022  -0.00017   2.11310
   A10        2.10997   0.00001  -0.00027   0.00122   0.00095   2.11092
   A11        2.09377   0.00000   0.00002  -0.00011  -0.00009   2.09368
   A12        2.07944   0.00000   0.00024  -0.00111  -0.00086   2.07858
   A13        2.06068   0.00003   0.00018  -0.00078  -0.00060   2.06009
   A14        2.11439   0.00001   0.00007  -0.00031  -0.00023   2.11416
   A15        2.10811  -0.00004  -0.00026   0.00109   0.00083   2.10894
   A16        2.10819  -0.00002   0.00025  -0.00118  -0.00093   2.10726
   A17        2.11199  -0.00007   0.00041  -0.00197  -0.00156   2.11043
   A18        2.06301   0.00008  -0.00066   0.00314   0.00247   2.06548
   A19        2.05331  -0.00030  -0.00098   0.00402   0.00287   2.05619
   A20        2.05569   0.00013   0.00052  -0.00201  -0.00166   2.05404
   A21        2.17414   0.00019   0.00049  -0.00176  -0.00144   2.17269
   A22        2.10660   0.00002  -0.00019   0.00089   0.00070   2.10731
   A23        2.11326   0.00000  -0.00007   0.00030   0.00023   2.11350
   A24        2.06323  -0.00001   0.00026  -0.00120  -0.00094   2.06229
   A25        3.06898  -0.00003  -0.00113   0.00485   0.00372   3.07271
   A26        3.14499  -0.00034  -0.00326   0.01186   0.00860   3.15359
    D1        0.00058  -0.00004   0.00040  -0.00248  -0.00208  -0.00150
    D2       -3.14110  -0.00003   0.00022  -0.00162  -0.00140   3.14069
    D3       -3.14142  -0.00001   0.00101  -0.00468  -0.00366   3.13811
    D4        0.00009   0.00000   0.00084  -0.00382  -0.00298  -0.00289
    D5        0.00012   0.00002   0.00051  -0.00196  -0.00146  -0.00133
    D6        3.14140   0.00004   0.00255  -0.01085  -0.00829   3.13311
    D7       -3.14106  -0.00001  -0.00011   0.00025   0.00014  -3.14092
    D8        0.00022   0.00000   0.00193  -0.00864  -0.00670  -0.00648
    D9       -0.00056   0.00003  -0.00068   0.00362   0.00294   0.00238
   D10        3.14072   0.00002   0.00018  -0.00037  -0.00019   3.14053
   D11        3.14112   0.00003  -0.00050   0.00275   0.00225  -3.13981
   D12       -0.00078   0.00002   0.00035  -0.00123  -0.00088  -0.00166
   D13       -3.13571  -0.00059  -0.00258  -0.01563  -0.01820   3.12927
   D14       -0.00362   0.00058   0.00330   0.01185   0.01515   0.01153
   D15        0.00579  -0.00059  -0.00275  -0.01478  -0.01753  -0.01174
   D16        3.13788   0.00059   0.00313   0.01269   0.01582  -3.12948
   D17       -0.00018   0.00000   0.00004  -0.00026  -0.00022  -0.00040
   D18        3.14143   0.00000   0.00087  -0.00402  -0.00315   3.13828
   D19       -3.14145   0.00000  -0.00083   0.00381   0.00297  -3.13848
   D20        0.00015   0.00000   0.00000   0.00005   0.00005   0.00020
   D21        0.00085  -0.00001   0.00082  -0.00400  -0.00318  -0.00233
   D22       -3.14015  -0.00001   0.00111  -0.00519  -0.00407   3.13896
   D23       -3.14075  -0.00001   0.00000  -0.00028  -0.00028  -3.14103
   D24        0.00143  -0.00001   0.00029  -0.00146  -0.00117   0.00026
   D25       -0.00082   0.00001  -0.00110   0.00513   0.00403   0.00320
   D26        3.14108  -0.00001  -0.00309   0.01378   0.01069  -3.13142
   D27        3.14018   0.00000  -0.00139   0.00631   0.00492  -3.13809
   D28       -0.00111  -0.00002  -0.00338   0.01496   0.01158   0.01047
   D29       -0.00745   0.00000   0.00020  -0.00099  -0.00078  -0.00823
   D30       -3.13466  -0.00002  -0.00003  -0.00020  -0.00023  -3.13489
   D31        3.13475   0.00000   0.00050  -0.00220  -0.00170   3.13305
   D32        0.00754  -0.00001   0.00027  -0.00142  -0.00115   0.00639
         Item               Value     Threshold  Converged?
 Maximum Force            0.000595     0.000015     NO 
 RMS     Force            0.000154     0.000010     NO 
 Maximum Displacement     0.018871     0.000060     NO 
 RMS     Displacement     0.006398     0.000040     NO 
 Predicted change in Energy=-1.666227D-05
 GradGradGradGradGradGradGradGradGradGradGradGradGradGradGradGradGradGrad

                          Input orientation:                          
 ---------------------------------------------------------------------
 Center     Atomic      Atomic             Coordinates (Angstroms)
 Number     Number       Type             X           Y           Z
 ---------------------------------------------------------------------
      1          6           0        0.065300    0.868512    0.937873
      2          6           0       -0.281323    1.452031   -0.258788
      3          6           0       -0.409198    0.693331   -1.416501
      4          6           0       -0.190582   -0.659564   -1.372307
      5          6           0        0.162547   -1.294885   -0.171410
      6          6           0        0.288685   -0.498650    0.988997
      7          1           0        0.162350    1.476988    1.824702
      8          1           0       -0.683790    1.183829   -2.338848
      9          1           0       -0.292463   -1.253235   -2.271633
     10          7           0       -0.516122    2.890523   -0.305860
     11          8           0       -0.808023    3.382315   -1.377467
     12          8           0       -0.381369    3.518148    0.724683
     13          7           0        0.375919   -2.628355   -0.122957
     14          1           0        0.278873   -3.193329   -0.946022
     15          1           0        0.623311   -3.083792    0.738908
     16          6           0        0.659661   -1.135617    2.210446
     17          7           0        0.946225   -1.718253    3.156184
 ---------------------------------------------------------------------
                    Distance matrix (angstroms):
                    1          2          3          4          5
     1  C    0.000000
     2  C    1.375732   0.000000
     3  C    2.408093   1.390064   0.000000
     4  C    2.781623   2.388931   1.371156   0.000000
     5  C    2.433157   2.783918   2.414569   1.403740   0.000000
     6  C    1.386235   2.384750   2.773856   2.414818   1.412956
     7  H    1.079874   2.130352   3.383221   3.861384   3.415808
     8  H    3.376013   2.135547   1.080146   2.139054   3.399720
     9  H    3.864030   3.371962   2.129318   1.082410   2.149350
    10  N    2.444065   1.458289   2.464266   3.721075   4.242206
    11  O    3.527421   2.292347   2.718680   4.088770   4.926741
    12  O    2.695465   2.290429   3.544719   4.678359   4.925862
    13  N    3.667414   4.135210   3.650104   2.399570   1.351302
    14  H    4.482547   4.729215   3.975037   2.611910   2.053691
    15  H    3.996458   4.731538   4.469734   3.316102   2.059410
    16  C    2.447293   3.698444   4.200268   3.712904   2.438386
    17  N    3.519700   4.818672   5.344376   4.787524   3.444745
                    6          7          8          9         10
     6  C    0.000000
     7  H    2.148839   0.000000
     8  H    3.853699   4.258761   0.000000
     9  H    3.396886   4.943777   2.469197   0.000000
    10  N    3.716297   2.645317   2.659691   4.591842   0.000000
    11  O    4.675982   3.850426   2.402712   4.749069   1.214663
    12  O    4.080870   2.381598   3.863383   5.634883   1.214121
    13  N    2.404099   4.548937   4.534965   2.637138   5.593497
    14  H    3.317482   5.431607   4.693208   2.418188   6.168880
    15  H    2.618679   4.710854   5.421595   3.640458   6.171085
    16  C    1.426635   2.687345   5.280224   4.583601   4.891224
    17  N    2.572254   3.549206   6.424516   5.586750   5.946850
                   11         12         13         14         15
    11  O    0.000000
    12  O    2.149306   0.000000
    13  N    6.253292   6.250718   0.000000
    14  H    6.678816   6.947740   1.003020   0.000000
    15  H    6.952575   6.677964   1.005702   1.723260   0.000000
    16  C    5.953060   4.994874   2.784518   3.787145   2.441747
    17  N    7.046074   5.924069   3.450550   4.410136   2.795030
                   16         17
    16  C    0.000000
    17  N    1.147172   0.000000
 Stoichiometry    C7H5N3O2
 Framework group  C1[X(C7H5N3O2)]
 Deg. of freedom    45
 Full point group                 C1      NOp   1
 Largest Abelian subgroup         C1      NOp   1
 Largest concise Abelian subgroup C1      NOp   1
                         Standard orientation:                         
 ---------------------------------------------------------------------
 Center     Atomic      Atomic             Coordinates (Angstroms)
 Number     Number       Type             X           Y           Z
 ---------------------------------------------------------------------
      1          6           0       -0.134795   -0.853166   -0.004453
      2          6           0       -1.138018    0.088206   -0.003678
      3          6           0       -0.846495    1.447347    0.001427
      4          6           0        0.459772    1.864160    0.002953
      5          6           0        1.513452    0.936670   -0.000095
      6          6           0        1.187891   -0.438266   -0.001875
      7          1           0       -0.383428   -1.904027   -0.005190
      8          1           0       -1.658826    2.159268    0.000886
      9          1           0        0.689653    2.921876    0.003820
     10          7           0       -2.527459   -0.354566   -0.007556
     11          8           0       -3.393617    0.496891    0.006461
     12          8           0       -2.738581   -1.550159    0.001049
     13          7           0        2.802124    1.343290   -0.001646
     14          1           0        3.031631    2.319682   -0.007741
     15          1           0        3.556572    0.678323   -0.009599
     16          6           0        2.253612   -1.386652    0.007802
     17          7           0        3.160972   -2.088548    0.001381
 ---------------------------------------------------------------------
 Rotational constants (GHZ):      1.9103919      0.6308259      0.4742339
 Basis read from rwf:  (5D, 7F)
 There are   567 symmetry adapted cartesian basis functions of A   symmetry.
 There are   495 symmetry adapted basis functions of A   symmetry.
   495 basis functions,   757 primitive gaussians,   567 cartesian basis functions
    42 alpha electrons       42 beta electrons
       nuclear repulsion energy       635.0894165585 Hartrees.
 NAtoms=   17 NActive=   17 NUniq=   17 SFac= 1.00D+00 NAtFMM=   60 NAOKFM=F Big=F
 Integral buffers will be    262144 words long.
 Raffenetti 2 integral format.
 Two-electron integral symmetry is turned on.
 One-electron integrals computed using PRISM.
 PrsmSu:  requested number of processors reduced to:   4 ShMem   1 Linda.
 NBasis=   495 RedAO= T EigKep=  1.23D-06  NBF=   495
 NBsUse=   493 1.00D-06 EigRej=  8.29D-07 NBFU=   493
 Initial guess from the checkpoint file:  "Z:\home\jakler\matheus\cn_s0.chk"
 B after Tr=     0.000000    0.000000    0.000000
         Rot=    1.000000   -0.000001    0.000000    0.000326 Ang=  -0.04 deg.
 Gradient too large for Newton-Raphson -- use scaled steepest descent instead.
     Accept linear search using points  3 and  4.
 Gradient too large for Newton-Raphson -- use scaled steepest descent instead.
 Gradient too large for Newton-Raphson -- use scaled steepest descent instead.
 Gradient too large for Newton-Raphson -- use scaled steepest descent instead.
     Accept linear search using points  1 and  2.
 Gradient too large for Newton-Raphson -- use scaled steepest descent instead.
 Gradient too large for Newton-Raphson -- use scaled steepest descent instead.
 Restarting incremental Fock formation.
 LinEq1:  Iter=  0 NonCon=     1 RMS=2.89D-05 Max=2.25D-03 NDo=     1
 AX will form     1 AO Fock derivatives at one time.
 LinEq1:  Iter=  1 NonCon=     1 RMS=5.63D-06 Max=3.91D-04 NDo=     1
 LinEq1:  Iter=  2 NonCon=     1 RMS=4.59D-06 Max=3.09D-04 NDo=     1
 LinEq1:  Iter=  3 NonCon=     1 RMS=2.97D-06 Max=1.38D-04 NDo=     1
 LinEq1:  Iter=  4 NonCon=     1 RMS=1.55D-06 Max=5.18D-05 NDo=     1
 LinEq1:  Iter=  5 NonCon=     1 RMS=1.13D-06 Max=3.21D-05 NDo=     1
 LinEq1:  Iter=  6 NonCon=     1 RMS=5.27D-07 Max=1.74D-05 NDo=     1
 LinEq1:  Iter=  7 NonCon=     1 RMS=3.34D-07 Max=1.14D-05 NDo=     1
 LinEq1:  Iter=  8 NonCon=     1 RMS=2.27D-07 Max=1.15D-05 NDo=     1
 LinEq1:  Iter=  9 NonCon=     1 RMS=1.53D-07 Max=8.46D-06 NDo=     1
 LinEq1:  Iter= 10 NonCon=     1 RMS=7.56D-08 Max=4.58D-06 NDo=     1
 LinEq1:  Iter= 11 NonCon=     1 RMS=4.21D-08 Max=1.92D-06 NDo=     1
 LinEq1:  Iter= 12 NonCon=     1 RMS=2.22D-08 Max=7.98D-07 NDo=     1
 LinEq1:  Iter= 13 NonCon=     1 RMS=8.51D-09 Max=2.17D-07 NDo=     1
 LinEq1:  Iter= 14 NonCon=     0 RMS=4.23D-09 Max=1.69D-07 NDo=     1
 Linear equations converged to 1.946D-08 1.946D-07 after    14 iterations.
     Accept linear search using points  1 and  2.
     Minimum is close to point  2 DX= -1.00D-05 DF=  0.00D+00 DXR=  1.00D-05 DFR=  0.00D+00 which will be used.
 LinEq1:  Iter=  0 NonCon=     1 RMS=7.06D-08 Max=5.09D-06 NDo=     1
 LinEq1:  Iter=  1 NonCon=     1 RMS=3.01D-08 Max=1.36D-06 NDo=     1
 LinEq1:  Iter=  2 NonCon=     1 RMS=2.52D-08 Max=1.38D-06 NDo=     1
 LinEq1:  Iter=  3 NonCon=     1 RMS=1.59D-08 Max=8.78D-07 NDo=     1
 LinEq1:  Iter=  4 NonCon=     1 RMS=1.15D-08 Max=4.82D-07 NDo=     1
 LinEq1:  Iter=  5 NonCon=     1 RMS=6.16D-09 Max=3.86D-07 NDo=     1
 LinEq1:  Iter=  6 NonCon=     1 RMS=4.01D-09 Max=2.03D-07 NDo=     1
 LinEq1:  Iter=  7 NonCon=     1 RMS=2.14D-09 Max=1.01D-07 NDo=     1
 LinEq1:  Iter=  8 NonCon=     1 RMS=1.80D-09 Max=8.50D-08 NDo=     1
 LinEq1:  Iter=  9 NonCon=     1 RMS=9.68D-10 Max=3.52D-08 NDo=     1
 LinEq1:  Iter= 10 NonCon=     1 RMS=5.01D-10 Max=2.85D-08 NDo=     1
 LinEq1:  Iter= 11 NonCon=     1 RMS=1.69D-10 Max=6.32D-09 NDo=     1
 LinEq1:  Iter= 12 NonCon=     1 RMS=8.45D-11 Max=3.80D-09 NDo=     1
 LinEq1:  Iter= 13 NonCon=     0 RMS=3.59D-11 Max=1.26D-09 NDo=     1
 Linear equations converged to 1.467D-10 1.467D-09 after    13 iterations.
 SCF Done:  E(RCAM-B3LYP) =  -584.325491080     a.u. after    9 cycles
            Convg  =    0.1343D-08                    51 Fock formations.
              S**2 =  0.0000                  -V/T =  2.0039
 PrsmSu:  requested number of processors reduced to:   4 ShMem   1 Linda.
 Calling FoFJK, ICntrl=      2127 FMM=F ISym2X=0 I1Cent= 0 IOpClX= 0 NMat=1 NMatS=1 NMatT=0.
 ***** Axes restored to original set *****
[...]
 --------------------------------------------------------------------------------
 GradGradGradGradGradGradGradGradGradGradGradGradGradGradGradGradGradGrad

 1|1|UNPC-QUANTUM-RYZEN5|Freq|RCAM-B3LYP|Gen|C7H5N3O2|JAKLER|08-Jan-202
 3|0||#N Geom=AllCheck Guess=TCheck SCRF=Check GenChk RCAM-B3LYP/ChkBas
  Freq||NA+CH3 CAM-B3LYP def2-TZVPD||0,1|C,0.0692563963,0.8693976596,0.
 9398967885|C,-0.2774363932,1.452265655,-0.2567602829|C,-0.4103625107,0
 .694181282,-1.4133756911|C,-0.1941166394,-0.6583554126,-1.3700491603|C
 ,0.1611677212,-1.2930412243,-0.1703145236|C,0.2891178618,-0.4979462744
 ,0.9894912846|H,0.1672128288,1.4767379687,1.8268551787|H,-0.6838662434
 ,1.1855833784,-2.3349601759|H,-0.2969418976,-1.2511003508,-2.269236099
 3|N,-0.5088389051,2.8900571361,-0.3099134126|O,-0.8133385004,3.3717485
 807,-1.3825172336|O,-0.3841152169,3.5220684015,0.719039678|N,0.3754945
 013,-2.625703427,-0.1217621069|H,0.2843730472,-3.189318416,-0.94590519
 7|H,0.6300447457,-3.0794262177,0.7384595231|C,0.6500077571,-1.13947786
 99,2.210396651|N,0.9423413373,-1.7276708691,3.1506546994||Version=IA32
 W-G09RevD.01|State=1-A|HF=-584.3255573|RMSD=0.000e+000|RMSF=5.853e-007
 |ZeroPoint=0.1193854|Thermal=0.1295794|Dipole=-0.0077794,-1.9757592,-1
 .4407725|DipoleDeriv=0.0459073,-0.1412348,0.0893847,-0.1557506,0.51617
 63,-0.3604677,0.0790412,-0.2929215,0.164122,-0.0572547,0.1452598,-0.09
 93637,0.1495927,-0.8843904,0.0762246,-0.0962663,0.0559766,-0.421189,-0
 .0147545,-0.0209916,-0.0019736,-0.0346938,0.5210039,0.2215683,-0.01171
 95,0.285353,0.1308144,-0.2063833,0.1895211,0.0550663,0.0616061,-0.6199
 859,-0.0199851,-0.0358729,0.5744118,0.0524893,0.1942118,-0.2874521,-0.
 0346035,-0.2307397,1.88163,0.1534237,0.0057326,-0.1101619,0.105914,-0.
 0418441,0.0073689,-0.0592191,0.1412434,-0.5966465,0.2520951,0.0359819,
 -0.3700548,-0.1239124,0.1345616,-0.0024471,-0.0050642,-0.006174,0.1420
 26,-0.0238816,-0.0077094,-0.0065845,0.0947899,0.1274433,0.0016824,-0.0
 139893,0.0048061,0.1331061,0.0240362,-0.0117731,0.0095145,0.082774,0.1
 355057,0.0108626,-0.0203776,0.0089332,-0.0039572,-0.0619208,-0.0217481
 ,-0.0529794,0.0028439,0.3666076,-0.3047246,0.2961437,-0.3320919,2.2744
 617,-0.1083686,0.2766909,0.0187609,1.555431,-0.3222975,0.1672343,-0.21
 78046,0.1838462,-0.8820111,0.4049211,-0.2059742,0.3276913,-0.9740725,-
 0.2697079,0.032142,-0.0799596,0.0386961,-0.9961837,-0.352439,-0.075319
 7,-0.3828402,-0.8697777,-0.511435,0.2046184,0.0819035,0.1735111,-1.738
 8562,-0.076088,0.0597778,0.0686072,-0.1712404,0.2921228,0.0285279,-0.0
 387568,0.0210928,0.2466613,0.0566718,-0.0440436,0.0911964,0.1649958,0.
 2853568,-0.0116172,-0.0133358,0.0027336,0.2256155,-0.0305304,-0.003138
 2,-0.0972711,0.2027621,0.1819548,-0.03559,0.1094726,-0.0486923,0.12127
 87,-0.2487817,0.1001405,-0.1878945,0.4847949,-0.3399946,0.0168399,-0.0
 475229,0.022081,-0.3399283,0.0935223,-0.0437999,0.0691962,-0.4815394|P
 olar=66.7447845,-17.6634691,157.2705126,16.7055587,-13.246141,128.6592
 314|PG=C01 [X(C7H5N3O2)]|NImag=0||0.18451875,-0.07461755,0.70423016,0.
 11856614,0.04899250,0.73337464,-0.08291367,0.02037948,-0.06638894,0.17
 345095,0.03389819,-0.14643749,0.09998149,-0.06400127,0.57764905,-0.056
 77897,0.03716686,-0.30292947,0.12764291,0.01643439,0.74101434,0.006150
 38,-0.00437543,-0.00949169,-0.07191176,-0.00974284,-0.03637897,0.19018
 352,-0.01529220,0.06183228,-0.03244902,0.00422580,-0.16256591,-0.04931
 620,-0.09325632,0.72253638,-0.01725343,0.01828203,-0.05965188,-0.02644
 725,-0.11423396,-0.26967997,0.12437314,-0.02571715,0.70881264,-0.00558
 523,0.01157605,-0.00894808,0.01108428,0.00364010,0.01771027,-0.0714419
 6,0.04195753,-0.02164355,0.16311025,0.01359816,-0.04397474,0.03326992,
 -0.00817442,-0.04260599,-0.07384073,0.05677265,-0.37718041,0.03858930,
 -0.08120834,0.74448140,-0.00750996,0.02387201,-0.01981696,0.00931097,-
 0.01893955,0.03763224,-0.01110972,-0.03025730,-0.13350565,0.10826054,0
 .06133376,0.67405544,0.00714189,-0.01079454,0.01424539,-0.00834387,-0.
 00416250,-0.01510452,-0.00231201,0.02276231,0.00367628,-0.08503186,0.0
 1499575,-0.05331893,0.20806822,-0.00083796,-0.03407049,-0.02984081,-0.
 00337322,0.01749505,0.00083614,0.01198602,-0.03269748,0.03217711,0.027
 62614,-0.14482106,0.07608097,-0.08668850,0.74666012,0.02132237,-0.0761
 0269,0.04740673,-0.01454268,-0.00283687,-0.07532467,-0.00398705,0.0822
 6133,0.04033968,-0.04434031,0.01739039,-0.26494137,0.10528805,0.005598
 60,0.66538403,-0.06872734,0.04705554,-0.00820502,0.00368455,0.01109285
 ,-0.01002824,-0.00230540,0.00422852,0.00297119,0.00540777,-0.00600012,
 -0.00655498,-0.07645126,-0.00366403,-0.02937794,0.17021903,0.03524571,
 -0.33456509,-0.03158109,0.02347667,-0.03252544,0.08060912,0.00039453,-
 0.05038423,-0.03235412,-0.01211247,0.05625944,-0.02048392,0.00660485,-
 0.16576225,-0.03689741,-0.08859722,0.69439622,-0.01660089,0.02329516,-
 0.12034082,-0.00122502,0.02306835,0.01824647,0.00024417,-0.01453929,-0
 .01149373,-0.01089948,0.00791826,-0.03911918,-0.02207939,-0.08461226,-
 0.23343770,0.10852756,-0.01280995,0.62850551,-0.04625270,-0.01292475,-
 0.02630513,0.00612529,-0.00459045,-0.00649825,0.00469276,0.00170017,-0
 .00233433,-0.00107314,0.00009780,0.00021006,0.00661342,0.00201677,-0.0
 0153371,0.00560695,0.00336502,0.00405921,0.03255552,-0.01294954,-0.147
 39030,-0.13469361,0.00100189,0.01364072,0.00950354,0.00170235,-0.00122
 276,0.00316237,0.00005478,-0.00061226,0.00060363,0.00200299,-0.0040201
 3,0.00129369,-0.00256253,-0.01156082,-0.02385721,0.01219700,0.15311474
 ,-0.02632260,-0.13457909,-0.26056123,-0.00252279,-0.01648128,-0.016618
 33,-0.00233256,0.00315198,-0.00314443,0.00017968,0.00080329,0.00030246
 ,-0.00154368,0.00135859,0.00104403,-0.00015506,0.00368700,0.00714929,0
 .02986575,0.14562772,0.27030553,0.00470116,0.00025111,-0.00109216,0.00
 507407,0.00159918,-0.00302993,-0.06304016,0.03454064,-0.06684111,0.004
 71467,0.00173780,-0.00391108,0.00848373,0.00176965,-0.00153706,-0.0009
 1537,-0.00014565,0.00040944,0.00018802,0.00007764,-0.00006892,0.050297
 63,0.00023397,-0.00202666,-0.00389002,-0.00401189,0.01353884,-0.013262
 34,0.03487871,-0.11532972,0.11091951,0.00761590,-0.00792125,0.02561938
 ,0.00199773,-0.00477459,-0.00056989,-0.00011427,-0.00097677,-0.0004962
 0,-0.00026088,0.00071399,-0.00085735,-0.03952480,0.11847276,-0.0011040
 0,-0.00381198,-0.00286551,-0.00701925,0.01281329,-0.01753740,-0.066600
 78,0.10934789,-0.27511827,0.00026821,-0.00169609,0.00586262,-0.0013754
 7,-0.00162860,0.00153573,0.00043131,-0.00064125,0.00052275,-0.00030952
 ,0.00071594,-0.00071458,0.07393204,-0.11958915,0.28687373,-0.00099364,
 0.00026708,0.00004112,0.00717851,0.00199312,-0.00144047,0.00352327,0.0
 0299716,0.00474766,-0.03915652,-0.01110595,-0.02792444,0.00341422,-0.0
 0467919,-0.00686936,0.00441633,0.00143591,-0.00195761,-0.00043706,-0.0
 0007731,0.00010375,-0.00476194,-0.00097305,0.00115383,0.02901497,0.000
 15556,-0.00090110,0.00076534,0.00216935,-0.00415523,0.00158642,-0.0033
 7325,-0.01399978,-0.02773266,-0.01117997,-0.14187380,-0.12803656,0.001
 96283,0.00973160,0.01306921,0.00134839,-0.00047411,0.00233402,-0.00008
 150,-0.00000340,-0.00004590,-0.00087624,0.00111893,0.00039164,0.010602
 95,0.14912457,-0.00003778,0.00128189,-0.00022626,-0.00131565,0.0007705
 9,0.00222783,0.00021902,0.00186810,0.00530480,-0.02797643,-0.12769351,
 -0.25562356,-0.00214844,-0.01779212,-0.01845567,-0.00202043,0.00274097
 ,-0.00238214,0.00010084,-0.00002638,-0.00002123,0.00122266,-0.00005845
 ,0.00048109,0.03136694,0.13830136,0.26796070,-0.00487054,0.01125987,-0
 .00049643,-0.08630287,0.00746794,-0.00599421,-0.00206668,0.00113194,0.
 00693037,0.00707690,-0.00209671,-0.00152366,-0.00190970,0.00240229,-0.
 00062369,0.00730087,-0.00020129,-0.00415853,-0.00463742,-0.00072692,0.
 00077524,-0.00387562,-0.00097532,-0.00031324,0.00118196,-0.00023967,-0
 .00022182,0.29132910,0.01067767,-0.03838900,0.02448721,0.00691440,-0.1
 3357738,-0.00320701,0.00204917,-0.04097644,-0.01720552,-0.00240002,0.0
 1129890,-0.00815510,0.00199204,-0.01597876,-0.00110362,0.00006989,0.01
 590828,0.00583157,-0.00145094,0.00095016,-0.00257205,-0.00019374,0.001
 11939,0.00270977,0.00019348,0.00031108,0.00027336,-0.05822094,0.680093
 89,-0.00090977,0.02719075,0.01206133,-0.00638824,-0.00063202,-0.114004
 01,0.00758152,-0.02146469,0.01658752,-0.00173870,-0.00674795,-0.005792
 19,-0.00091643,0.00080580,-0.00509300,-0.00396586,0.00457075,-0.007014
 94,0.00026050,0.00079252,-0.00314128,0.00024265,-0.00092302,-0.0034867
 5,0.00008647,-0.00174034,0.00035688,0.14650855,0.03458109,0.95633083,0
 .00343372,0.00118056,0.00093613,0.01556861,0.01602727,-0.01538839,0.00
 088015,-0.00173671,-0.00220496,-0.00067419,0.00091554,-0.00013891,0.00
 037102,-0.00138898,-0.00025721,-0.00124718,0.00090531,0.00058068,0.000
 63840,-0.00030194,0.00015007,-0.00014242,0.00065972,0.00051603,-0.0000
 3133,0.00007319,0.00001627,-0.11384210,0.05522541,-0.10047837,0.072890
 09,-0.00046096,-0.00342569,-0.00700342,0.01935122,-0.03327253,0.051106
 64,0.00093790,-0.00212363,0.00207467,0.00056670,-0.00119418,0.00214278
 ,-0.00018887,0.00386050,0.00171452,0.00062758,-0.00441403,0.00065520,0
 .00002983,0.00035354,-0.00000793,0.00087661,-0.00409395,0.00127170,-0.
 00000258,-0.00016072,-0.00010927,0.05562324,-0.22171839,0.16041714,-0.
 06966271,0.22112337,-0.00023119,0.00062577,0.00278383,-0.01302493,0.03
 565910,-0.01384518,-0.00030347,-0.01035463,-0.00768223,-0.00038714,0.0
 0376459,0.00037281,0.00059615,-0.00386251,0.00023848,0.00038339,0.0019
 4509,0.00193069,0.00038604,-0.00155021,0.00125119,0.00067021,0.0002635
 3,0.00314922,-0.00003759,0.00024260,-0.00002589,-0.10019535,0.15856898
 ,-0.43666191,0.14569299,-0.18848169,0.57394079,0.00040105,0.00241755,-
 0.00145912,0.02112871,0.00257744,0.00178061,0.00311263,0.00085618,-0.0
 0151561,-0.00096269,0.00024286,0.00058722,0.00030748,0.00007839,0.0003
 0399,-0.00043774,-0.00060411,0.00065608,-0.00003549,0.00069164,0.00075
 590,0.00041191,0.00031300,0.00016230,-0.00054122,0.00001961,0.00010109
 ,-0.09054948,-0.01306861,-0.04014893,0.02287987,-0.00820474,-0.0331948
 1,0.04435878,-0.00061014,-0.00031185,-0.00382744,-0.00039116,-0.045924
 54,-0.04949805,0.00259125,-0.00309584,0.00730467,0.00045344,-0.0042467
 0,-0.00016448,-0.00096000,0.00437845,-0.00152737,-0.00008316,-0.002814
 57,-0.00191140,0.00049726,-0.00421192,-0.00061863,-0.00001909,0.000581
 46,0.00002184,0.00007159,-0.00091954,0.00007609,-0.01351530,-0.2728540
 7,-0.19714173,-0.00320714,0.04938421,-0.00024672,0.01457059,0.28402007
 ,-0.00361143,0.01024113,-0.00841669,-0.00033004,-0.03570256,-0.0057771
 3,-0.00028134,-0.00076025,0.00171991,0.00073692,-0.00114279,0.00156008
 ,-0.00043388,0.00329675,0.00058060,0.00102608,-0.00433078,0.00101873,0
 .00061763,0.00028534,0.00298070,-0.00007396,0.00156594,0.00119484,0.00
 013778,-0.00016464,-0.00003602,-0.04046679,-0.19506570,-0.41065011,-0.
 02964154,-0.02347118,-0.12567028,0.07196503,0.24752853,0.54152145,0.00
 317544,0.00114487,-0.00328061,-0.00066598,0.00278036,0.00276116,0.0043
 4822,-0.00352227,-0.00376498,0.00622978,0.01960030,-0.00586460,-0.0538
 5906,0.04960880,-0.02048320,0.01042396,-0.00196637,0.00277879,-0.00001
 643,-0.00020975,0.00003874,-0.00035462,0.00022139,0.00010237,-0.002442
 25,-0.00057594,0.00111842,-0.00000521,-0.00242310,0.00029213,-0.000166
 74,0.00058096,-0.00042574,0.00000282,0.00078324,0.00050467,0.07150577,
 -0.00019039,0.00569338,0.00028101,0.00153864,-0.01777176,-0.00489101,-
 0.00107986,0.01646034,0.00340527,0.01369246,-0.04539370,0.02389767,0.0
 4954101,-0.36096404,0.00336207,0.00252428,-0.04310620,-0.02568842,0.00
 011580,-0.00040761,0.00028803,-0.00002880,-0.00007534,0.00005484,-0.00
 087043,0.00184381,-0.00076626,-0.00259359,0.01493648,-0.00112320,0.001
 30789,-0.00390440,0.00329278,0.00013576,-0.00450208,-0.00257998,-0.109
 11280,0.77980285,-0.00422964,0.00648209,-0.01098830,0.00187804,0.00088
 297,0.00851960,-0.00202806,-0.00795252,-0.01045589,-0.01006448,0.05135
 085,0.00022741,-0.02053020,0.00366600,-0.13465273,0.00597088,-0.046552
 57,0.00417529,0.00027023,-0.00122390,0.00032821,-0.00007557,0.00121881
 ,0.00017198,0.00090887,0.00060482,0.00188151,0.00017079,-0.00032941,0.
 00012009,0.00009103,-0.00008553,0.00037590,0.00004448,0.00042857,0.000
 52560,0.17213847,0.03473943,0.84234360,0.00176139,0.00017775,-0.000074
 92,0.00006637,0.00024678,0.00000559,-0.00082226,-0.00034708,0.00003269
 ,-0.00208908,0.00003072,0.00093689,-0.00301249,0.00171699,0.00716639,0
 .00302108,0.00177688,-0.00078664,-0.00023391,0.00003077,0.00003429,0.0
 0016760,0.00003894,-0.00003996,0.00052405,0.00003645,-0.00044522,0.000
 06718,-0.00019713,0.00001276,-0.00005924,0.00004399,-0.00006285,-0.000
 03390,0.00003312,0.00001600,-0.00698026,-0.00967360,-0.04650254,0.0117
 0357,-0.00008983,-0.00000083,-0.00170144,0.00002754,0.00059140,0.00047
 529,-0.00005569,-0.00067051,-0.00010916,-0.00109007,0.00243951,-0.0017
 0557,-0.00461399,-0.01724551,-0.03065150,0.00178413,-0.00416363,0.0028
 6978,0.00004058,-0.00032880,0.00012319,0.00002779,0.00001200,0.0000084
 7,0.00040485,-0.00011143,0.00135777,0.00009420,-0.00054297,0.00002764,
 -0.00003882,0.00015625,-0.00004167,0.00000109,0.00024318,0.00020090,-0
 .00957715,-0.19155216,-0.18178974,0.01281048,0.19659150,-0.00026546,-0
 .00045594,0.00024695,-0.00014991,0.00149129,0.00046650,0.00023965,-0.0
 0146044,-0.00080705,0.00013983,0.00350252,0.00085388,0.00266570,-0.001
 22884,0.00722140,-0.00078108,0.00283487,0.00184801,0.00004125,0.000077
 30,0.00001008,-0.00004786,0.00005999,0.00000244,-0.00018326,-0.0003547
 9,-0.00047839,0.00022007,-0.00132717,0.00011340,-0.00012167,0.00034303
 ,-0.00036046,-0.00000697,0.00035039,0.00018444,-0.04643440,-0.18224147
 ,-0.34379379,0.04402858,0.19631967,0.34836034,-0.00068132,0.00002247,0
 .00007088,0.00008650,-0.00042807,-0.00015834,0.00183757,0.00068306,-0.
 00048417,0.00378211,0.00046635,0.00014502,-0.00561673,0.00278365,-0.00
 277460,-0.00102916,-0.00101023,-0.00028617,0.00009418,-0.00001688,-0.0
 0000004,-0.00042674,-0.00002306,0.00010887,-0.00067984,-0.00014216,0.0
 0014180,-0.00016681,0.00037328,-0.00000347,0.00003409,-0.00009218,0.00
 008497,-0.00000066,-0.00012174,-0.00007821,-0.02951639,0.05341051,-0.0
 9883535,-0.00363201,0.00024375,0.00065821,0.03619374,0.00010749,-0.000
 75683,0.00045384,-0.00015612,0.00032987,-0.00053010,0.00064411,0.00023
 917,0.00170735,0.00067633,-0.00458831,-0.00283624,0.00801815,-0.011868
 27,0.03208402,-0.00015866,0.00140451,0.00105975,0.00000886,0.00000111,
 -0.00002305,-0.00002957,-0.00035061,-0.00006385,-0.00007356,0.00008399
 ,0.00023880,0.00005448,-0.00036040,0.00007470,-0.00006151,0.00013820,-
 0.00018882,-0.00001853,0.00009395,-0.00001756,0.05366467,-0.14899629,0
 .14348580,-0.00656604,0.01423760,-0.01773168,-0.05608124,0.15162647,0.
 00013200,0.00005676,-0.00004069,0.00003445,-0.00179078,-0.00105780,-0.
 00051153,0.00188803,0.00100872,0.00029493,-0.00381335,0.00248246,0.000
 94481,0.00776866,0.00531737,0.00031842,-0.00289733,-0.00170092,0.00001
 826,-0.00014244,0.00007569,0.00010416,-0.00003376,0.00000703,0.0001904
 5,-0.00008003,0.00009711,-0.00023066,0.00155717,-0.00007296,0.00010683
 ,-0.00033122,0.00026248,-0.00000451,-0.00049816,-0.00037758,-0.0986527
 1,0.14229741,-0.35730878,-0.00418364,0.01391222,-0.01328534,0.10088567
 ,-0.15698693,0.36306961,-0.00338774,0.00973180,-0.00833726,0.00836979,
 0.00149868,0.00208545,-0.00094695,-0.00176143,-0.00070915,0.00538008,0
 .00075170,-0.00207132,0.00122635,-0.00292754,-0.00889544,-0.07369156,0
 .02526698,-0.05002048,-0.00438750,-0.00109447,0.00118078,-0.00063665,-
 0.00008945,0.00009165,-0.00017152,0.00009079,-0.00006869,0.00168330,0.
 00115802,-0.00028386,-0.00063839,-0.00030905,0.00011064,-0.00010982,-0
 .00035374,-0.00025230,-0.00257164,0.00273068,0.00033845,-0.00043828,0.
 00012489,-0.00018666,0.00064278,0.00027540,0.00101853,0.18893733,0.012
 68019,-0.02552107,0.04085388,0.00056586,-0.00482793,-0.00659715,-0.000
 15371,0.00105037,0.00078904,0.00069392,-0.00228551,-0.00262400,-0.0042
 7380,0.02256149,-0.00573442,0.02682197,-0.12633334,0.07681114,-0.00082
 605,0.00100827,0.00029692,-0.00006971,-0.00001810,0.00013956,-0.000271
 82,0.00053296,-0.00078280,0.00071580,-0.00102528,0.00123126,0.00000633
 ,-0.00036015,0.00027749,-0.00003954,0.00048979,0.00024270,-0.00001730,
 -0.00640439,-0.00304999,0.00005793,-0.00018921,0.00040418,-0.00031805,
 -0.00213858,-0.00332960,-0.19450036,0.50076933,-0.00624075,0.02715414,
 -0.00980323,0.00142238,-0.00226368,0.01315094,0.00043517,-0.00668104,-
 0.00379795,-0.00211301,-0.00235476,-0.00555045,-0.00985133,0.00052052,
 -0.04271832,-0.04891552,0.06958520,-0.23688852,0.00137131,-0.00095034,
 0.00088877,0.00010535,0.00004776,-0.00014490,-0.00032706,0.00090208,-0
 .00101863,-0.00059847,0.00328559,0.00147817,0.00033483,-0.00118787,0.0
 0000201,-0.00002895,-0.00121719,-0.00110982,-0.00161544,0.00971997,-0.
 00282195,-0.00023383,0.00071507,-0.00095916,0.00059600,-0.00057212,0.0
 0283128,0.32199233,-0.61170024,1.15125034,0.00212842,-0.00275186,0.000
 21969,-0.00167948,0.00010323,-0.00118570,0.00011869,0.00083270,0.00046
 721,-0.00077116,-0.00062407,0.00047691,0.00091065,0.00357073,0.0011414
 6,0.01472448,0.00616548,-0.00924172,0.00055912,0.00018028,-0.00013854,
 0.00011473,0.00001336,-0.00000441,-0.00003799,0.00000960,-0.00005259,-
 0.00041287,-0.00069888,-0.00015096,0.00010562,0.00028306,-0.00006131,0
 .00006774,0.00026098,0.00016540,0.00089259,-0.00144756,0.00045459,-0.0
 0000982,-0.00009376,0.00018398,-0.00092131,-0.00030426,-0.00046545,-0.
 11925957,0.15892832,-0.25633303,0.10347016,-0.00154838,0.00601534,-0.0
 0409833,0.00045723,0.00041929,0.00342419,0.00008039,-0.00187181,-0.001
 05876,-0.00056248,0.00221867,-0.00034749,0.00180454,-0.01248461,-0.001
 35008,0.00562684,0.00911203,0.02007149,0.00006550,-0.00002451,-0.00015
 147,0.00000718,0.00000962,-0.00004401,0.00008776,-0.00014781,0.0003198
 7,-0.00018001,0.00080451,0.00008131,0.00009659,-0.00034839,0.00008632,
 0.00003142,-0.00030998,-0.00012585,-0.00097991,0.00434111,-0.00187570,
 -0.00021696,0.00053361,-0.00058290,0.00025054,0.00090442,0.00242335,0.
 15940710,-0.35730865,0.51499692,-0.16442735,0.34813715,0.00107534,-0.0
 0969140,-0.00023245,-0.00093407,0.00177924,-0.00448396,-0.00006747,0.0
 0243519,0.00156379,0.00052079,-0.00063369,0.00099997,-0.00011410,0.006
 85596,0.00555541,-0.00962471,0.02257542,-0.01101881,-0.00022014,0.0003
 8203,-0.00013487,-0.00000887,-0.00001475,0.00006597,0.00000293,-0.0000
 4255,-0.00004212,0.00021783,-0.00232914,-0.00113107,-0.00019379,0.0009
 5243,-0.00006144,0.00000219,0.00094108,0.00075128,0.00078694,-0.004048
 15,0.00135225,0.00009643,-0.00001094,0.00037676,-0.00007107,-0.0001539
 2,-0.00130767,-0.25599267,0.51277202,-0.86478856,0.26452445,-0.5317688
 5,0.87253551||-0.00000007,0.,-0.00000067,0.,0.00000053,0.00000050,-0.0
 0000004,-0.00000043,-0.00000003,-0.00000008,0.00000078,-0.00000028,0.0
 0000046,-0.00000107,-0.00000011,-0.00000028,0.00000151,0.00000099,0.00
 000010,-0.00000038,0.00000046,-0.00000005,0.00000077,0.00000020,-0.000
 00020,0.00000038,-0.00000026,0.00000027,0.00000053,0.00000143,-0.00000
 003,-0.00000008,-0.00000051,0.00000030,-0.00000083,0.00000113,-0.00000
 028,0.00000012,-0.00000058,-0.00000028,0.00000022,-0.00000081,0.000000
 01,-0.00000010,-0.00000044,0.00000010,-0.00000139,-0.00000112,0.000000
 08,-0.00000057,0.00000010|||@


 SEE YOU NOW,
 YOUR BAIT OF FALSEHOOD TAKES THIS CARP OF TRUTH.
 AND THUS DO WE OF WISDOM AND OF REACH...
 BY INDIRECTIONS FIND DIRECTIONS OUT.    -- HAMLET, II, 1
 Job cpu time:       0 days  6 hours 15 minutes 46.0 seconds.
 File lengths (MBytes):  RWF=    271 Int=      0 D2E=      0 Chk=     15 Scr=      1
 Normal termination of Gaussian 09 at Sun Jan 08 01:15:19 2023.
