 operating system is UNIX !
 hostname is         dlt12.abaxnet

 dscf (dlt12.abaxnet) : TURBOMOLE V6.6( 19103 ) 21 May 2014 at 15:45:05
 Copyright (C) 2014 TURBOMOLE GmbH, Karlsruhe


    2023-01-22 15:33:10.573 



                             d s c f - program

                   idea & directorship : reinhart ahlrichs
                   program development : marco haeser
                                         michael baer
                           dft version : oliver treutler


                          quantum chemistry group
                          universitaet  karlsruhe
                                  germany




                          References             
                                                 
          TURBOMOLE:                             
              R. Ahlrichs, M. Baer, M. Haeser, H. Horn, and
              C. Koelmel
              Electronic structure calculations on workstation
              computers: the program system TURBOMOLE
              Chem. Phys. Lett. 162: 165 (1989)
          Density Functional:                              
              O. Treutler and R. Ahlrichs                      
              Efficient Molecular Numerical Integration Schemes
              J. Chem. Phys. 102: 346 (1995)                   
          Parallel Version:                                
              Performance of parallel TURBOMOLE for Density    
              Functional Calculations                          
              M. v. Arnim and R. Ahlrichs                      
              J. Comp. Chem. 19: 1746 (1998)                   
                                         




              +--------------------------------------------------+
              | Atomic coordinate, charge and isotop information |
              +--------------------------------------------------+

                    atomic coordinates            atom    charge  isotop
         -1.31204982    1.88347754   -0.00724903    c      6.000     0
         -2.93824514   -0.16881486   -0.00432011    c      6.000     0
         -2.05458224   -2.62041292    0.04492321    c      6.000     0
          0.52436662   -3.01326225    0.04181143    c      6.000     0
          2.20356459   -0.99567987   -0.01020154    c      6.000     0
          1.26267705    1.49184072    0.00951607    c      6.000     0
         -2.08893736    3.77147958   -0.00196302    h      1.000     0
         -3.37214306   -4.17543499    0.06291431    h      1.000     0
          1.25999209   -4.92242436    0.04545573    h      1.000     0
         -5.65580840    0.29011311   -0.02456214    n      7.000     0
         -7.05520199   -1.52954837    0.01732971    o      8.000     0
         -6.37738351    2.47133609   -0.08180300    o      8.000     0
          4.79493156   -1.34181687    0.00774759    n      7.000     0
          5.39027607   -3.11429347   -0.34485567    h      1.000     0
          5.78432062   -0.02442249   -0.95430747    h      1.000     0
          3.00625088    3.48187886   -0.06446529    n      7.000     0
          2.20787893    5.20794199    0.05433780    h      1.000     0
          4.42009313    3.30804256    1.20969143    h      1.000     0
 
       center of nuclear mass  :   -1.29913007    0.05253754   -0.00785916
       center of nuclear charge:   -1.15908999    0.05074133   -0.00708240

   *************************************************************************
   ADC(2) - opt by CAM-B3LYP gaussian                                       
   *************************************************************************



              +--------------------------------------------------+
              |               basis set information              |
              +--------------------------------------------------+

              we will work with the 1s 3p 5d 7f 9g ... basis set
              ...i.e. with spherical basis functions...

   type   atoms  prim   cont   basis
   ---------------------------------------------------------------------------
    c        6     52     37   def2-TZVPD   [6s3p3d1f|12s6p3d1f]
    h        7     11      9   def2-TZVPD   [3s2p|5s2p]
    n        3     52     37   def2-TZVPD   [6s3p3d1f|12s6p3d1f]
    o        2     55     40   def2-TZVPD   [6s4p3d1f|12s7p3d1f]
   ---------------------------------------------------------------------------
   total:   18    655    476
   ---------------------------------------------------------------------------

   total number of primitive shells          :   74
   total number of contracted shells         :  180
   total number of cartesian basis functions :  542
   total number of SCF-basis functions       :  476


 integral neglect threshold       :  0.62E-11
 integral storage threshold THIZE :  0.10E-04
 integral storage threshold THIME :         5


 DENSITY CONVERGENCE CHECK SWITCHED ON !
 SCF CONVERGENCE IF RMS(delta[D]) <     0.1000000000E-07


 symmetry group of the molecule :   c1 

 the group has the following generators :
   c1(z)

    1 symmetry operations found

 there are 1 real representations :   a   

 maximum number of shells which are related by symmetry :  1


    mo occupation :
   irrep   mo's   occupied
    a      476       40
 
 number of basis functions   :          476
 number of occupied orbitals :           40
 

          ------------------------
          nuclear repulsion energy  :   595.835936427    
          ------------------------

 
          -----------------
          -S,T+V- integrals
          -----------------

 1e-integrals will be neglected if expon. factor < 0.616598E-12
 
   Difference densities algorithm switched on.
   The maximal number of linear combinations of
   difference densities is          20 .

 automatic virtual orbital shift switched on 
      shift if e(lumo)-e(homo) < 0.10000000    


 DIIS switched on: error vector is FDS-SDF
 Max. Iterations for DIIS is     :   5
 DIIS matrix (see manual) 
    Scaling factor of diagonals  :  1.200
    threshold for scaling factor :  0.000

 scf convergence criterion : increment of total energy < .1000000D-06
                  and increment of one-electron energy < .1000000D-03


 <geterg> : there is no data group $energy 

  MOs are in ASCII format !


 reading orbital data $scfmo  from file mos . 

 orbital characterization : expanded
 
 mo provided and orthogonalized by Cholesky decomposition

 DSCF restart information will be dumped onto file mos

 
                                              current damping :  0.300
 ITERATION  ENERGY          1e-ENERGY        2e-ENERGY     RMS[dD(SAO)]   TOL
   1  -542.26202562575    -1910.8234584     772.72549630    0.000D+00 0.615D-11
          max. resid. norm for Fia-block=  3.834D-01 for orbital     25a         
          max. resid. fock norm         =  9.299D+00 for orbital    277a         
          Delta Eig. =   934.9228843776 eV 
 
                                              current damping :  0.250
 ITERATION  ENERGY          1e-ENERGY        2e-ENERGY     RMS[dD(SAO)]   TOL
   2  -544.21049609161    -1923.3112499     783.26481739    0.737D-01 0.613D-11
          Norm of current diis error:  2.7168    
          max. resid. norm for Fia-block=  1.520D-01 for orbital     12a         
          max. resid. fock norm         =  3.382D-01 for orbital    460a         
          Delta Eig. =   212.4322384811 eV 
 
                                              current damping :  0.100
 ITERATION  ENERGY          1e-ENERGY        2e-ENERGY     RMS[dD(SAO)]   TOL
   3  -544.40319093479    -1923.7233415     783.48421410    0.116D-01 0.389D-11
          Norm of current diis error:  1.0855    
          max. resid. norm for Fia-block=  5.836D-02 for orbital     28a         
          max. resid. fock norm         =  7.088D-02 for orbital     28a         
          Delta Eig. =    52.0780673278 eV 
 
                                              current damping :  0.100
 ITERATION  ENERGY          1e-ENERGY        2e-ENERGY     RMS[dD(SAO)]   TOL
   4  -544.44991405195    -1924.0953699     783.80951938    0.634D-02 0.298D-11
          Norm of current diis error: 0.31566    
          max. resid. norm for Fia-block=  1.791D-02 for orbital     24a         
          max. resid. fock norm         =  2.601D-02 for orbital    470a         
          Delta Eig. =     4.6244371319 eV 
 
                                              current damping :  0.100
 ITERATION  ENERGY          1e-ENERGY        2e-ENERGY     RMS[dD(SAO)]   TOL
   5  -544.45485859541    -1924.2825433     783.99174830    0.227D-02 0.266D-11
          Norm of current diis error: 0.11222    
          max. resid. norm for Fia-block=  6.191D-03 for orbital     40a         
          max. resid. fock norm         =  1.493D-02 for orbital    470a         
 mo-orthogonalization: Cholesky decomposition
          Delta Eig. =     0.5281485218 eV 
 
                                              current damping :  0.150
 ITERATION  ENERGY          1e-ENERGY        2e-ENERGY     RMS[dD(SAO)]   TOL
   6  -544.45562207055    -1924.2202188     783.92866032    0.111D-02 0.245D-11
          Norm of current diis error: 0.40447E-01
          max. resid. norm for Fia-block=  3.821D-03 for orbital     40a         
          max. resid. fock norm         =  4.054D-03 for orbital     40a         
          Delta Eig. =     0.1397201770 eV 
 
                                              current damping :  0.100
 ITERATION  ENERGY          1e-ENERGY        2e-ENERGY     RMS[dD(SAO)]   TOL
   7  -544.45578735220    -1924.2162906     783.92456683    0.545D-03 0.232D-11
          Norm of current diis error: 0.18793E-01
          max. resid. norm for Fia-block=  1.823D-03 for orbital     40a         
          max. resid. fock norm         =  1.952D-03 for orbital     40a         
          Delta Eig. =     0.0579612381 eV 
 
                                              current damping :  0.150
 ITERATION  ENERGY          1e-ENERGY        2e-ENERGY     RMS[dD(SAO)]   TOL
   8  -544.45582596925    -1924.2167861     783.92502367    0.311D-03 0.221D-11
          Norm of current diis error: 0.64197E-02
          max. resid. norm for Fia-block=  7.785D-04 for orbital     40a         
          max. resid. fock norm         =  7.928D-04 for orbital     40a         
          Delta Eig. =     0.0214973725 eV 
 
                                              current damping :  0.200
 ITERATION  ENERGY          1e-ENERGY        2e-ENERGY     RMS[dD(SAO)]   TOL
   9  -544.45583098171    -1924.2141783     783.92241094    0.915D-04 0.214D-11
          Norm of current diis error: 0.28225E-02
          max. resid. norm for Fia-block=  2.867D-04 for orbital     40a         
          max. resid. fock norm         =  3.167D-04 for orbital     40a         
          Delta Eig. =     0.0106155454 eV 
 
                                              current damping :  0.100
 ITERATION  ENERGY          1e-ENERGY        2e-ENERGY     RMS[dD(SAO)]   TOL
  10  -544.45583181645    -1924.2141173     783.92234902    0.280D-04 0.208D-11
          Norm of current diis error: 0.14285E-02
          max. resid. norm for Fia-block=  1.826D-04 for orbital     40a         
          max. resid. fock norm         =  1.847D-04 for orbital     40a         
 mo-orthogonalization: Cholesky decomposition
          Delta Eig. =     0.0043517831 eV 
 
                                              current damping :  0.100
 ITERATION  ENERGY          1e-ENERGY        2e-ENERGY     RMS[dD(SAO)]   TOL
  11  -544.45583208720    -1924.2140469     783.92227839    0.121D-04 0.202D-11
          Norm of current diis error: 0.81920E-03
          max. resid. norm for Fia-block=  9.171D-05 for orbital     40a         
          max. resid. fock norm         =  9.462D-05 for orbital     40a         
          Delta Eig. =     0.0030757545 eV 
 
                                              current damping :  0.100
 ITERATION  ENERGY          1e-ENERGY        2e-ENERGY     RMS[dD(SAO)]   TOL
  12  -544.45583217370    -1924.2140295     783.92226091    0.583D-05 0.195D-11
          Norm of current diis error: 0.42017E-03
          max. resid. norm for Fia-block=  5.488D-05 for orbital     40a         
          max. resid. fock norm         =  5.590D-05 for orbital     40a         
          Delta Eig. =     0.0017063504 eV 
 
                                              current damping :  0.100
 ITERATION  ENERGY          1e-ENERGY        2e-ENERGY     RMS[dD(SAO)]   TOL
  13  -544.45583219636    -1924.2139409     783.92217231    0.251D-05 0.188D-11
          Norm of current diis error: 0.22317E-03
          max. resid. norm for Fia-block=  3.183D-05 for orbital     39a         
          max. resid. fock norm         =  3.220D-05 for orbital     39a         
          Delta Eig. =     0.0010034322 eV 
 
                                              current damping :  0.150
 ITERATION  ENERGY          1e-ENERGY        2e-ENERGY     RMS[dD(SAO)]   TOL
  14  -544.45583220221    -1924.2139539     783.92218525    0.148D-05 0.182D-11
          Norm of current diis error: 0.90262E-04
          max. resid. norm for Fia-block=  1.229D-05 for orbital     40a         
          max. resid. fock norm         =  1.390D-05 for orbital    203a         
          Delta Eig. =     0.0002573399 eV 
 
                                              current damping :  0.200
 ITERATION  ENERGY          1e-ENERGY        2e-ENERGY     RMS[dD(SAO)]   TOL
  15  -544.45583220284    -1924.2139491     783.92218042    0.680D-06 0.178D-11
          Norm of current diis error: 0.35572E-04
          max. resid. norm for Fia-block=  5.684D-06 for orbital     39a         
          max. resid. fock norm         =  1.058D-05 for orbital    203a         
 mo-orthogonalization: Cholesky decomposition
          Delta Eig. =     0.0001607528 eV 
 
                                              current damping :  0.100
 ITERATION  ENERGY          1e-ENERGY        2e-ENERGY     RMS[dD(SAO)]   TOL
  16  -544.45583220196    -1924.2139341     783.92216543    0.432D-06 0.175D-11
          Norm of current diis error: 0.15766E-04
          max. resid. norm for Fia-block=  1.616D-06 for orbital     39a         
          max. resid. fock norm         =  8.512D-06 for orbital    203a         
          Delta Eig. =     0.0000701828 eV 

 ENERGY & DENSITY CONVERGED !

 
                                              current damping :  0.150
 ITERATION  ENERGY          1e-ENERGY        2e-ENERGY     RMS[dD(SAO)]   TOL
  17  -544.45583220146    -1924.2139386     783.92216995    0.330D-06 0.175D-11
          max. resid. norm for Fia-block=  4.631D-07 for orbital     40a         
          max. resid. fock norm         =  8.679D-06 for orbital    203a         

 convergence criteria satisfied after 17 iterations


   *************************************************************************
   ADC(2) - opt by CAM-B3LYP gaussian                                       
   *************************************************************************


                  ------------------------------------------ 
                 |  total energy      =   -544.45583220146  |
                  ------------------------------------------ 
                 :  kinetic energy    =    543.92592546085  :
                 :  potential energy  =  -1088.38175766231  :
                 :  virial theorem    =      1.99902672226  :
                 :  wavefunction norm =      1.00000000000  :
                  .......................................... 


 <geterg> : there is no data group $energy 


 <skperg> : $end is missing 


 orbitals $scfmo  will be written to file mos

    irrep                 36a         37a         38a         39a         40a   
 eigenvalues H         -0.48152    -0.47282    -0.44591    -0.35091    -0.31255
            eV         -13.1030    -12.8663    -12.1339     -9.5489     -8.5050
 occupation              2.0000      2.0000      2.0000      2.0000      2.0000 

    irrep                 41a         42a         43a         44a         45a   
 eigenvalues H          0.05452     0.05937     0.07259     0.08003     0.09983
            eV           1.4835      1.6156      1.9752      2.1778      2.7164
 
 
 
 
 ==============================================================================
                           electrostatic moments
 ==============================================================================
 
              nuc           elec       ->  total
 ------------------------------------------------------------------------------
                          charge      
 ------------------------------------------------------------------------------
          80.000000     -80.000000      -0.000000
 
 ------------------------------------------------------------------------------
                       dipole moment  
 ------------------------------------------------------------------------------
   x     -92.727199      95.383093       2.655893
   y       4.059307      -4.212325      -0.153019
   z      -0.566592       0.598885       0.032293
 
   | dipole moment | =     2.6605 a.u. =     6.7623 debye 
 
 ------------------------------------------------------------------------------
                     quadrupole moment
 ------------------------------------------------------------------------------
  xx    1403.749186   -1462.787734     -59.038549
  yy     405.722393    -446.861176     -41.138783
  zz       2.615825     -52.015043     -49.399217
  xy      -4.705101       5.301640       0.596538
  xz       0.656731      -1.256006      -0.599275
  yz      -0.028750       2.007863       1.979113
 
     1/3  trace=     -49.858850
     anisotropy=      15.958452
 
 ==============================================================================
 


    ------------------------------------------------------------------------
         total  cpu-time : 27 minutes and 47 seconds
         total wall-time : 27 minutes and 49 seconds
    ------------------------------------------------------------------------


   ****  dscf : all done  ****


    2023-01-22 16:00:59.640 

