 Entering Gaussian System, Link 0=g09
 Initial command:
 /apps/software//g09/l1.exe /scratch/matheusmaximo/37944.cluster.abaxnet/Gau-2499.inp -scrdir=/scratch/matheusmaximo/37944.cluster.abaxnet/
 Entering Link 1 = /apps/software//g09/l1.exe PID=      2500.
  
 Copyright (c) 1988,1990,1992,1993,1995,1998,2003,2009, Gaussian, Inc.
                  All Rights Reserved.
  
 This is part of the Gaussian(R) 09 program.  It is based on
 the Gaussian(R) 03 system (copyright 2003, Gaussian, Inc.),
 the Gaussian(R) 98 system (copyright 1998, Gaussian, Inc.),
 the Gaussian(R) 94 system (copyright 1995, Gaussian, Inc.),
 the Gaussian 92(TM) system (copyright 1992, Gaussian, Inc.),
 the Gaussian 90(TM) system (copyright 1990, Gaussian, Inc.),
 the Gaussian 88(TM) system (copyright 1988, Gaussian, Inc.),
 the Gaussian 86(TM) system (copyright 1986, Carnegie Mellon
 University), and the Gaussian 82(TM) system (copyright 1983,
 Carnegie Mellon University). Gaussian is a federally registered
 trademark of Gaussian, Inc.
  
 This software contains proprietary and confidential information,
 including trade secrets, belonging to Gaussian, Inc.
  
 This software is provided under written license and may be
 used, copied, transmitted, or stored only in accord with that
 written license.
  
 The following legend is applicable only to US Government
 contracts under FAR:
  
                    RESTRICTED RIGHTS LEGEND
  
 Use, reproduction and disclosure by the US Government is
 subject to restrictions as set forth in subparagraphs (a)
 and (c) of the Commercial Computer Software - Restricted
 Rights clause in FAR 52.227-19.
  
 Gaussian, Inc.
 340 Quinnipiac St., Bldg. 40, Wallingford CT 06492
  
  
 ---------------------------------------------------------------
 Warning -- This program may not be used in any manner that
 competes with the business of Gaussian, Inc. or will provide
 assistance to any competitor of Gaussian, Inc.  The licensee
 of this program is prohibited from giving any competitor of
 Gaussian, Inc. access to this program.  By using this program,
 the user acknowledges that Gaussian, Inc. is engaged in the
 business of creating and licensing software in the field of
 computational chemistry and represents and warrants to the
 licensee that it is not a competitor of Gaussian, Inc. and that
 it will not use this program in any manner prohibited above.
 ---------------------------------------------------------------
  

 Cite this work as:
 Gaussian 09, Revision A.02,
 M. J. Frisch, G. W. Trucks, H. B. Schlegel, G. E. Scuseria, 
 M. A. Robb, J. R. Cheeseman, G. Scalmani, V. Barone, B. Mennucci, 
 G. A. Petersson, H. Nakatsuji, M. Caricato, X. Li, H. P. Hratchian, 
 A. F. Izmaylov, J. Bloino, G. Zheng, J. L. Sonnenberg, M. Hada, 
 M. Ehara, K. Toyota, R. Fukuda, J. Hasegawa, M. Ishida, T. Nakajima, 
 Y. Honda, O. Kitao, H. Nakai, T. Vreven, J. A. Montgomery, Jr., 
 J. E. Peralta, F. Ogliaro, M. Bearpark, J. J. Heyd, E. Brothers, 
 K. N. Kudin, V. N. Staroverov, R. Kobayashi, J. Normand, 
 K. Raghavachari, A. Rendell, J. C. Burant, S. S. Iyengar, J. Tomasi, 
 M. Cossi, N. Rega, J. M. Millam, M. Klene, J. E. Knox, J. B. Cross, 
 V. Bakken, C. Adamo, J. Jaramillo, R. Gomperts, R. E. Stratmann, 
 O. Yazyev, A. J. Austin, R. Cammi, C. Pomelli, J. W. Ochterski, 
 R. L. Martin, K. Morokuma, V. G. Zakrzewski, G. A. Voth, 
 P. Salvador, J. J. Dannenberg, S. Dapprich, A. D. Daniels, 
 O. Farkas, J. B. Foresman, J. V. Ortiz, J. Cioslowski, 
 and D. J. Fox, Gaussian, Inc., Wallingford CT, 2009.
 
 ******************************************
 Gaussian 09:  EM64L-G09RevA.02 11-Jun-2009
                23-Oct-2018 
 ******************************************
 %chk=/home/matheusmaximo/Gaussian/OCH3/1.chk
 ---------------------------------------------------------------------
 # opt=tight freq cam-b3lyp/gen geom=connectivity scf=qc int=ultrafine
 ---------------------------------------------------------------------
 1/7=10,14=-1,18=20,19=15,26=3,38=1,57=2/1,3;
 2/9=110,12=2,17=6,18=5,40=1/2;
 3/5=7,11=2,16=1,25=1,30=1,71=1,74=-40,75=-5/1,2,3;
 4//1;
 5/5=2,8=3,38=5/8;
 6/7=2,8=2,9=2,10=2,28=1/1;
 7//1,2,3,16;
 1/7=10,14=-1,18=20,19=15/3(2);
 2/9=110/2;
 99//99;
 2/9=110/2;
 3/5=7,6=1,11=2,16=1,25=1,30=1,71=1,74=-40,75=-5,82=7/1,2,3;
 4/5=5,16=3/1;
 5/5=2,8=3,38=5/8;
 7//1,2,3,16;
 1/7=10,14=-1,18=20,19=15/3(-5);
 2/9=110/2;
 6/7=2,8=2,9=2,10=2,19=2,28=1/1;
 99/9=1/99;
 ----------------------------
 NA+OCH3 CAM-B3LYP def2-TZVPD
 ----------------------------
 Symbolic Z-matrix:
 Charge =  0 Multiplicity = 1
 C                    -0.32495  -0.19916   0. 
 C                    -0.49196   0.55962  -1.15423 
 C                    -0.42905   0.00499  -2.42017 
 C                    -0.19435  -1.35888  -2.53105 
 C                    -0.02426  -2.16119  -1.40504 
 C                    -0.08916  -1.55848  -0.13182 
 H                    -0.37891   0.29024   0.96091 
 H                    -0.56229   0.6295   -3.29239 
 H                    -0.14852  -1.81768  -3.51324 
 N                    -0.73842   1.98883  -1.01076 
 O                    -0.87863   2.6525   -2.03644 
 O                    -0.7918    2.45      0.12948 
 N                     0.1495   -3.52602  -1.48585 
 H                     0.52977  -3.8779   -2.35174 
 H                     0.52469  -3.96335  -0.65607 
 O                    -0.45299  -2.40047   0.86939 
 C                    -0.52876  -1.83839   2.17364 
 H                    -0.82949  -2.65062   2.82942 
 H                     0.44278  -1.45033   2.48776 
 H                    -1.27356  -1.0404    2.20974 
 

 GradGradGradGradGradGradGradGradGradGradGradGradGradGradGradGradGradGrad
 Berny optimization.
 Initialization pass.
                           ----------------------------
                           !    Initial Parameters    !
                           ! (Angstroms and Degrees)  !
 --------------------------                            --------------------------
 ! Name  Definition              Value          Derivative Info.                !
 --------------------------------------------------------------------------------
 ! R1    R(1,2)                  1.3914         estimate D2E/DX2                !
 ! R2    R(1,6)                  1.3859         estimate D2E/DX2                !
 ! R3    R(1,7)                  1.0797         estimate D2E/DX2                !
 ! R4    R(2,3)                  1.3835         estimate D2E/DX2                !
 ! R5    R(2,10)                 1.4574         estimate D2E/DX2                !
 ! R6    R(3,4)                  1.3884         estimate D2E/DX2                !
 ! R7    R(3,8)                  1.081          estimate D2E/DX2                !
 ! R8    R(4,5)                  1.393          estimate D2E/DX2                !
 ! R9    R(4,9)                  1.085          estimate D2E/DX2                !
 ! R10   R(5,6)                  1.4102         estimate D2E/DX2                !
 ! R11   R(5,13)                 1.3782         estimate D2E/DX2                !
 ! R12   R(6,16)                 1.3578         estimate D2E/DX2                !
 ! R13   R(10,11)                1.2297         estimate D2E/DX2                !
 ! R14   R(10,12)                1.2311         estimate D2E/DX2                !
 ! R15   R(13,14)                1.0091         estimate D2E/DX2                !
 ! R16   R(13,15)                1.0102         estimate D2E/DX2                !
 ! R17   R(16,17)                1.4222         estimate D2E/DX2                !
 ! R18   R(17,18)                1.0864         estimate D2E/DX2                !
 ! R19   R(17,19)                1.0923         estimate D2E/DX2                !
 ! R20   R(17,20)                1.0922         estimate D2E/DX2                !
 ! A1    A(2,1,6)              118.4511         estimate D2E/DX2                !
 ! A2    A(2,1,7)              119.0192         estimate D2E/DX2                !
 ! A3    A(6,1,7)              122.5291         estimate D2E/DX2                !
 ! A4    A(1,2,3)              122.3426         estimate D2E/DX2                !
 ! A5    A(1,2,10)             118.2579         estimate D2E/DX2                !
 ! A6    A(3,2,10)             119.3994         estimate D2E/DX2                !
 ! A7    A(2,3,4)              118.3315         estimate D2E/DX2                !
 ! A8    A(2,3,8)              120.0722         estimate D2E/DX2                !
 ! A9    A(4,3,8)              121.5963         estimate D2E/DX2                !
 ! A10   A(3,4,5)              121.4581         estimate D2E/DX2                !
 ! A11   A(3,4,9)              119.6581         estimate D2E/DX2                !
 ! A12   A(5,4,9)              118.8822         estimate D2E/DX2                !
 ! A13   A(4,5,6)              118.5574         estimate D2E/DX2                !
 ! A14   A(4,5,13)             122.5715         estimate D2E/DX2                !
 ! A15   A(6,5,13)             118.8158         estimate D2E/DX2                !
 ! A16   A(1,6,5)              120.8582         estimate D2E/DX2                !
 ! A17   A(1,6,16)             119.5036         estimate D2E/DX2                !
 ! A18   A(5,6,16)             114.3965         estimate D2E/DX2                !
 ! A19   A(2,10,11)            117.8036         estimate D2E/DX2                !
 ! A20   A(2,10,12)            117.7658         estimate D2E/DX2                !
 ! A21   A(11,10,12)           124.4306         estimate D2E/DX2                !
 ! A22   A(5,13,14)            116.3058         estimate D2E/DX2                !
 ! A23   A(5,13,15)            115.3002         estimate D2E/DX2                !
 ! A24   A(14,13,15)           114.4512         estimate D2E/DX2                !
 ! A25   A(6,16,17)            116.4487         estimate D2E/DX2                !
 ! A26   A(16,17,18)           105.833          estimate D2E/DX2                !
 ! A27   A(16,17,19)           110.8994         estimate D2E/DX2                !
 ! A28   A(16,17,20)           110.8181         estimate D2E/DX2                !
 ! A29   A(18,17,19)           109.7696         estimate D2E/DX2                !
 ! A30   A(18,17,20)           109.7277         estimate D2E/DX2                !
 ! A31   A(19,17,20)           109.7228         estimate D2E/DX2                !
 ! D1    D(6,1,2,3)             -0.0792         estimate D2E/DX2                !
 ! D2    D(6,1,2,10)          -179.9423         estimate D2E/DX2                !
 ! D3    D(7,1,2,3)            179.6458         estimate D2E/DX2                !
 ! D4    D(7,1,2,10)            -0.2173         estimate D2E/DX2                !
 ! D5    D(2,1,6,5)             -0.2158         estimate D2E/DX2                !
 ! D6    D(2,1,6,16)          -153.2088         estimate D2E/DX2                !
 ! D7    D(7,1,6,5)           -179.9307         estimate D2E/DX2                !
 ! D8    D(7,1,6,16)            27.0764         estimate D2E/DX2                !
 ! D9    D(1,2,3,4)              0.1937         estimate D2E/DX2                !
 ! D10   D(1,2,3,8)           -179.8773         estimate D2E/DX2                !
 ! D11   D(10,2,3,4)          -179.9448         estimate D2E/DX2                !
 ! D12   D(10,2,3,8)            -0.0157         estimate D2E/DX2                !
 ! D13   D(1,2,10,11)          179.6712         estimate D2E/DX2                !
 ! D14   D(1,2,10,12)           -0.311          estimate D2E/DX2                !
 ! D15   D(3,2,10,11)           -0.196          estimate D2E/DX2                !
 ! D16   D(3,2,10,12)          179.8218         estimate D2E/DX2                !
 ! D17   D(2,3,4,5)             -0.0134         estimate D2E/DX2                !
 ! D18   D(2,3,4,9)            179.5247         estimate D2E/DX2                !
 ! D19   D(8,3,4,5)           -179.9413         estimate D2E/DX2                !
 ! D20   D(8,3,4,9)             -0.4033         estimate D2E/DX2                !
 ! D21   D(3,4,5,6)             -0.269          estimate D2E/DX2                !
 ! D22   D(3,4,5,13)           176.9906         estimate D2E/DX2                !
 ! D23   D(9,4,5,6)           -179.8105         estimate D2E/DX2                !
 ! D24   D(9,4,5,13)            -2.5509         estimate D2E/DX2                !
 ! D25   D(4,5,6,1)              0.3858         estimate D2E/DX2                !
 ! D26   D(4,5,6,16)           154.6664         estimate D2E/DX2                !
 ! D27   D(13,5,6,1)          -176.9786         estimate D2E/DX2                !
 ! D28   D(13,5,6,16)          -22.6979         estimate D2E/DX2                !
 ! D29   D(4,5,13,14)           24.8775         estimate D2E/DX2                !
 ! D30   D(4,5,13,15)          162.9856         estimate D2E/DX2                !
 ! D31   D(6,5,13,14)         -157.8696         estimate D2E/DX2                !
 ! D32   D(6,5,13,15)          -19.7616         estimate D2E/DX2                !
 ! D33   D(1,6,16,17)          -25.5099         estimate D2E/DX2                !
 ! D34   D(5,6,16,17)          179.8332         estimate D2E/DX2                !
 ! D35   D(6,16,17,18)        -179.9916         estimate D2E/DX2                !
 ! D36   D(6,16,17,19)         -61.0035         estimate D2E/DX2                !
 ! D37   D(6,16,17,20)          61.1139         estimate D2E/DX2                !
 --------------------------------------------------------------------------------
 Trust Radius=3.00D-01 FncErr=1.00D-07 GrdErr=1.00D-06
 Number of steps in this run=  98 maximum allowed number of steps= 120.
 GradGradGradGradGradGradGradGradGradGradGradGradGradGradGradGradGradGrad

                          Input orientation:                          
 ---------------------------------------------------------------------
 Center     Atomic      Atomic             Coordinates (Angstroms)
 Number     Number       Type             X           Y           Z
 ---------------------------------------------------------------------
      1          6           0       -0.324948   -0.199161    0.000000
      2          6           0       -0.491958    0.559619   -1.154230
      3          6           0       -0.429048    0.004989   -2.420170
      4          6           0       -0.194348   -1.358881   -2.531050
      5          6           0       -0.024258   -2.161191   -1.405040
      6          6           0       -0.089158   -1.558481   -0.131820
      7          1           0       -0.378908    0.290239    0.960910
      8          1           0       -0.562288    0.629499   -3.292390
      9          1           0       -0.148518   -1.817681   -3.513240
     10          7           0       -0.738418    1.988829   -1.010760
     11          8           0       -0.878628    2.652499   -2.036440
     12          8           0       -0.791798    2.449999    0.129480
     13          7           0        0.149502   -3.526021   -1.485850
     14          1           0        0.529772   -3.877901   -2.351740
     15          1           0        0.524692   -3.963351   -0.656070
     16          8           0       -0.452989   -2.400470    0.869388
     17          6           0       -0.528762   -1.838391    2.173644
     18          1           0       -0.829489   -2.650617    2.829417
     19          1           0        0.442784   -1.450334    2.487760
     20          1           0       -1.273556   -1.040401    2.209743
 ---------------------------------------------------------------------
                    Distance matrix (angstroms):
                    1          2          3          4          5
     1  C    0.000000
     2  C    1.391361   0.000000
     3  C    2.430995   1.383538   0.000000
     4  C    2.787153   2.380094   1.388351   0.000000
     5  C    2.431895   2.772085   2.426248   1.393029   0.000000
     6  C    1.385902   2.386193   2.792223   2.409815   1.410163
     7  H    1.079709   2.135220   3.393462   3.866192   3.425347
     8  H    3.403357   2.140457   1.080987   2.160711   3.411674
     9  H    3.872156   3.366665   2.143741   1.085032   2.139614
    10  N    2.445382   1.457384   2.453114   3.716780   4.229438
    11  O    3.547621   2.303900   2.712689   4.099274   4.929526
    12  O    2.693095   2.304637   3.551109   4.684328   4.920055
    13  N    3.674350   4.148963   3.698068   2.430467   1.378218
    14  H    4.449085   4.708455   4.000107   2.627159   2.037224
    15  H    3.914261   4.662510   4.446278   3.288743   2.027334
    16  O    2.370230   3.585899   4.075291   3.565779   2.326820
    17  C    2.730081   4.102018   4.950871   4.740877   3.628458
    18  H    3.777539   5.127278   5.896673   5.550369   4.338037
    19  H    2.888563   4.263536   5.192863   5.059916   3.984638
    20  H    2.547647   3.806215   4.821009   4.872498   3.985420
                    6          7          8          9         10
     6  C    0.000000
     7  H    2.166975   0.000000
     8  H    3.873024   4.270748   0.000000
     9  H    3.391859   4.951204   2.491720   0.000000
    10  N    3.711803   2.627154   2.661698   4.593463   0.000000
    11  O    4.688624   3.848909   2.402085   4.764085   1.229689
    12  O    4.077977   2.350812   3.882794   5.647682   1.231127
    13  N    2.400327   4.563956   4.586783   2.667874   5.606040
    14  H    3.269683   5.401180   4.732238   2.460420   6.150208
    15  H    2.536740   4.639412   5.406106   3.636005   6.095055
    16  O    1.357842   2.693283   5.149083   4.431679   4.783552
    17  C    2.363634   2.454434   5.997427   5.699620   4.983172
    18  H    3.241878   3.513257   6.950329   6.433257   6.023264
    19  H    2.675230   2.456835   6.224629   6.041240   5.046060
    20  H    2.674719   2.032383   5.793784   5.884081   4.453565
                   11         12         13         14         15
    11  O    0.000000
    12  O    2.177098   0.000000
    13  N    6.287632   6.261641   0.000000
    14  H    6.687984   6.924256   1.009054   0.000000
    15  H    6.902478   6.594035   1.010228   1.697829   0.000000
    16  O    5.844441   4.918262   2.678994   3.677539   2.392798
    17  C    6.165656   4.757950   4.086568   5.075352   3.692222
    18  H    7.197362   5.771253   4.510686   5.495289   3.963041
    19  H    6.248820   4.722104   4.492668   5.414925   4.025622
    20  H    5.641236   4.091757   4.675554   5.666615   4.471042
                   16         17         18         19         20
    16  O    0.000000
    17  C    1.422237   0.000000
    18  H    2.011476   1.086363   0.000000
    19  H    2.079493   1.092318   1.782158   0.000000
    20  H    2.078380   1.092158   1.781569   1.786382   0.000000
 Stoichiometry    C7H8N2O3
 Framework group  C1[X(C7H8N2O3)]
 Deg. of freedom    54
 Full point group                 C1      NOp   1
 Largest Abelian subgroup         C1      NOp   1
 Largest concise Abelian subgroup C1      NOp   1
                         Standard orientation:                         
 ---------------------------------------------------------------------
 Center     Atomic      Atomic             Coordinates (Angstroms)
 Number     Number       Type             X           Y           Z
 ---------------------------------------------------------------------
      1          6           0        0.099627    0.714136    0.170029
      2          6           0        1.126433   -0.213901    0.027532
      3          6           0        0.886130   -1.571206   -0.091436
      4          6           0       -0.430371   -2.011561   -0.070598
      5          6           0       -1.492757   -1.120983    0.066288
      6          6           0       -1.207637    0.254414    0.190979
      7          1           0        0.348688    1.760485    0.264337
      8          1           0        1.712173   -2.260210   -0.198486
      9          1           0       -0.643869   -3.070722   -0.170054
     10          7           0        2.499567    0.274013    0.007318
     11          8           0        3.400773   -0.553958   -0.112795
     12          8           0        2.678628    1.487540    0.112027
     13          7           0       -2.809688   -1.525711    0.029252
     14          1           0       -2.989982   -2.485174    0.284431
     15          1           0       -3.475774   -0.862383    0.399232
     16          8           0       -2.211372    1.074247   -0.214147
     17          6           0       -1.971411    2.471742   -0.103765
     18          1           0       -2.872086    2.956909   -0.469255
     19          1           0       -1.794703    2.755828    0.936056
     20          1           0       -1.117914    2.768664   -0.717108
 ---------------------------------------------------------------------
 Rotational constants (GHZ):      1.5817566      0.6874895      0.4831340
 General basis read from cards:  (5D, 7F)
 There are   525 symmetry adapted basis functions of A   symmetry.
 Integral buffers will be    131072 words long.
 Raffenetti 2 integral format.
 Two-electron integral symmetry is turned on.
   525 basis functions,   793 primitive gaussians,   597 cartesian basis functions
    44 alpha electrons       44 beta electrons
       nuclear repulsion energy       695.9005479448 Hartrees.
 NAtoms=   20 NActive=   20 NUniq=   20 SFac= 7.50D-01 NAtFMM=   80 NAOKFM=F Big=F
 One-electron integrals computed using PRISM.
 NBasis=   525 RedAO= T  NBF=   525
 NBsUse=   523 1.00D-06 NBFU=   523
                                                                                                                                                                                                                                                                                                                                                                                                                                                                                                                                                                                                                                                                                                                                                                                                                                                                                                                                                                                                                                                                                                                                                                                                                                                                                                                                                                                                                                                                                                                                                                                                                                                                                                                                                                                                                                                                                                                                                                                                                                                                                                                                                                                                                                                                                                                                                                                                                                                                                                                                                                                                                                                                                                                                                                                                                                                                                                                                                                                                                                                                                                                                                                                                                                                                                 (A) (A)
                 (A) (A) (A) (A) (A) (A) (A) (A) (A) (A) (A) (A)
                 (A) (A) (A) (A) (A) (A) (A) (A) (A) (A) (A) (A)
                 (A) (A) (A) (A) (A) (A) (A) (A) (A) (A) (A) (A)
                 (A) (A) (A) (A) (A) (A) (A) (A) (A) (A) (A) (A)
                 (A) (A) (A) (A) (A) (A) (A) (A) (A) (A) (A) (A)
                 (A) (A) (A) (A) (A) (A) (A) (A) (A) (A) (A)
 The electronic state of the initial guess is 1-A.
 FoFJK:  IHMeth= 1 ICntrl=     0 DoSepK=T KAlg= 1 I1Cent= 0 FoldK=F
 Gradient too large for Newton-Raphson -- use scaled steepest descent instead.
 FoFJK:  IHMeth= 1 ICntrl=     0 DoSepK=T KAlg= 1 I1Cent= 0 FoldK=F
 FoFJK:  IHMeth= 1 ICntrl=     0 DoSepK=T KAlg= 1 I1Cent= 0 FoldK=F
 FoFJK:  IHMeth= 1 ICntrl=     0 DoSepK=T KAlg= 1 I1Cent= 0 FoldK=F
 FoFJK:  IHMeth= 1 ICntrl=     0 DoSepK=T KAlg= 1 I1Cent= 0 FoldK=F
 Gradient too large for Newton-Raphson -- use scaled steepest descent instead.
 FoFJK:  IHMeth= 1 ICntrl=     0 DoSepK=T KAlg= 1 I1Cent= 0 FoldK=F
 FoFJK:  IHMeth= 1 ICntrl=     0 DoSepK=T KAlg= 1 I1Cent= 0 FoldK=F
 FoFJK:  IHMeth= 1 ICntrl=     0 DoSepK=T KAlg= 1 I1Cent= 0 FoldK=F
 FoFJK:  IHMeth= 1 ICntrl=     0 DoSepK=T KAlg= 1 I1Cent= 0 FoldK=F
 FoFJK:  IHMeth= 1 ICntrl=     0 DoSepK=T KAlg= 1 I1Cent= 0 FoldK=F
 Gradient too large for Newton-Raphson -- use scaled steepest descent instead.
 FoFJK:  IHMeth= 1 ICntrl=     0 DoSepK=T KAlg= 1 I1Cent= 0 FoldK=F
 FoFJK:  IHMeth= 1 ICntrl=     0 DoSepK=T KAlg= 1 I1Cent= 0 FoldK=F
 FoFJK:  IHMeth= 1 ICntrl=     0 DoSepK=T KAlg= 1 I1Cent= 0 FoldK=F
 Gradient too large for Newton-Raphson -- use scaled steepest descent instead.
 FoFJK:  IHMeth= 1 ICntrl=     0 DoSepK=T KAlg= 1 I1Cent= 0 FoldK=F
 FoFJK:  IHMeth= 1 ICntrl=     0 DoSepK=T KAlg= 1 I1Cent= 0 FoldK=F
 FoFJK:  IHMeth= 1 ICntrl=     0 DoSepK=T KAlg= 1 I1Cent= 0 FoldK=F
 FoFJK:  IHMeth= 1 ICntrl=     0 DoSepK=T KAlg= 1 I1Cent= 0 FoldK=F
 Gradient too large for Newton-Raphson -- use scaled steepest descent instead.
 FoFJK:  IHMeth= 1 ICntrl=     0 DoSepK=T KAlg= 1 I1Cent= 0 FoldK=F
 FoFJK:  IHMeth= 1 ICntrl=     0 DoSepK=T KAlg= 1 I1Cent= 0 FoldK=F
 FoFJK:  IHMeth= 1 ICntrl=     0 DoSepK=T KAlg= 1 I1Cent= 0 FoldK=F
 Gradient too large for Newton-Raphson -- use scaled steepest descent instead.
 FoFJK:  IHMeth= 1 ICntrl=     0 DoSepK=T KAlg= 1 I1Cent= 0 FoldK=F
 FoFJK:  IHMeth= 1 ICntrl=     0 DoSepK=T KAlg= 1 I1Cent= 0 FoldK=F
 FoFJK:  IHMeth= 1 ICntrl=     0 DoSepK=T KAlg= 1 I1Cent= 0 FoldK=F
 FoFJK:  IHMeth= 1 ICntrl=     0 DoSepK=T KAlg= 1 I1Cent= 0 FoldK=F
 LinEq1:  Iter=  0 NonCon=     1 RMS=5.83D-05 Max=4.41D-03
 AX will form     1 AO Fock derivatives at one time.
 FoFJK:  IHMeth= 1 ICntrl=     0 DoSepK=T KAlg= 1 I1Cent= 0 FoldK=F
 LinEq1:  Iter=  1 NonCon=     1 RMS=7.23D-05 Max=5.13D-03
 FoFJK:  IHMeth= 1 ICntrl=     0 DoSepK=T KAlg= 1 I1Cent= 0 FoldK=F
 LinEq1:  Iter=  2 NonCon=     1 RMS=1.06D-05 Max=5.96D-04
 FoFJK:  IHMeth= 1 ICntrl=     0 DoSepK=T KAlg= 1 I1Cent= 0 FoldK=F
 LinEq1:  Iter=  3 NonCon=     1 RMS=1.03D-05 Max=4.52D-04
 FoFJK:  IHMeth= 1 ICntrl=     0 DoSepK=T KAlg= 1 I1Cent= 0 FoldK=F
 LinEq1:  Iter=  4 NonCon=     1 RMS=2.06D-06 Max=1.10D-04
 FoFJK:  IHMeth= 1 ICntrl=     0 DoSepK=T KAlg= 1 I1Cent= 0 FoldK=F
 LinEq1:  Iter=  5 NonCon=     1 RMS=1.72D-06 Max=9.58D-05
 FoFJK:  IHMeth= 1 ICntrl=     0 DoSepK=T KAlg= 1 I1Cent= 0 FoldK=F
 LinEq1:  Iter=  6 NonCon=     1 RMS=3.59D-07 Max=9.49D-06
 FoFJK:  IHMeth= 1 ICntrl=     0 DoSepK=T KAlg= 1 I1Cent= 0 FoldK=F
 LinEq1:  Iter=  7 NonCon=     1 RMS=1.53D-07 Max=3.29D-06
 FoFJK:  IHMeth= 1 ICntrl=     0 DoSepK=T KAlg= 1 I1Cent= 0 FoldK=F
 LinEq1:  Iter=  8 NonCon=     1 RMS=5.24D-08 Max=2.11D-06
 FoFJK:  IHMeth= 1 ICntrl=     0 DoSepK=T KAlg= 1 I1Cent= 0 FoldK=F
 LinEq1:  Iter=  9 NonCon=     1 RMS=3.74D-08 Max=2.13D-06
 FoFJK:  IHMeth= 1 ICntrl=     0 DoSepK=T KAlg= 1 I1Cent= 0 FoldK=F
 LinEq1:  Iter= 10 NonCon=     1 RMS=1.19D-08 Max=5.03D-07
 FoFJK:  IHMeth= 1 ICntrl=     0 DoSepK=T KAlg= 1 I1Cent= 0 FoldK=F
 LinEq1:  Iter= 11 NonCon=     1 RMS=6.28D-09 Max=2.41D-07
 FoFJK:  IHMeth= 1 ICntrl=     0 DoSepK=T KAlg= 1 I1Cent= 0 FoldK=F
 LinEq1:  Iter= 12 NonCon=     0 RMS=2.15D-09 Max=8.04D-08
 Linear equations converged to 2.053D-08 2.053D-07 after    12 iterations.
 FoFJK:  IHMeth= 1 ICntrl=     0 DoSepK=T KAlg= 1 I1Cent= 0 FoldK=F
 FoFJK:  IHMeth= 1 ICntrl=     0 DoSepK=T KAlg= 1 I1Cent= 0 FoldK=F
 FoFJK:  IHMeth= 1 ICntrl=     0 DoSepK=T KAlg= 1 I1Cent= 0 FoldK=F
 LinEq1:  Iter=  0 NonCon=     1 RMS=2.70D-07 Max=1.66D-05
 FoFJK:  IHMeth= 1 ICntrl=     0 DoSepK=T KAlg= 1 I1Cent= 0 FoldK=F
 LinEq1:  Iter=  1 NonCon=     1 RMS=1.43D-07 Max=7.33D-06
 FoFJK:  IHMeth= 1 ICntrl=     0 DoSepK=T KAlg= 1 I1Cent= 0 FoldK=F
 LinEq1:  Iter=  2 NonCon=     1 RMS=8.15D-08 Max=5.90D-06
 FoFJK:  IHMeth= 1 ICntrl=     0 DoSepK=T KAlg= 1 I1Cent= 0 FoldK=F
 LinEq1:  Iter=  3 NonCon=     1 RMS=4.15D-08 Max=9.28D-07
 FoFJK:  IHMeth= 1 ICntrl=     0 DoSepK=T KAlg= 1 I1Cent= 0 FoldK=F
 LinEq1:  Iter=  4 NonCon=     1 RMS=3.84D-08 Max=2.97D-06
 FoFJK:  IHMeth= 1 ICntrl=     0 DoSepK=T KAlg= 1 I1Cent= 0 FoldK=F
 LinEq1:  Iter=  5 NonCon=     1 RMS=1.96D-08 Max=7.81D-07
 FoFJK:  IHMeth= 1 ICntrl=     0 DoSepK=T KAlg= 1 I1Cent= 0 FoldK=F
 LinEq1:  Iter=  6 NonCon=     1 RMS=1.08D-08 Max=5.54D-07
 FoFJK:  IHMeth= 1 ICntrl=     0 DoSepK=T KAlg= 1 I1Cent= 0 FoldK=F
 LinEq1:  Iter=  7 NonCon=     1 RMS=4.74D-09 Max=2.38D-07
 FoFJK:  IHMeth= 1 ICntrl=     0 DoSepK=T KAlg= 1 I1Cent= 0 FoldK=F
 LinEq1:  Iter=  8 NonCon=     1 RMS=3.00D-09 Max=1.67D-07
 FoFJK:  IHMeth= 1 ICntrl=     0 DoSepK=T KAlg= 1 I1Cent= 0 FoldK=F
 LinEq1:  Iter=  9 NonCon=     1 RMS=1.35D-09 Max=6.74D-08
 FoFJK:  IHMeth= 1 ICntrl=     0 DoSepK=T KAlg= 1 I1Cent= 0 FoldK=F
 LinEq1:  Iter= 10 NonCon=     1 RMS=7.20D-10 Max=2.98D-08
 FoFJK:  IHMeth= 1 ICntrl=     0 DoSepK=T KAlg= 1 I1Cent= 0 FoldK=F
 LinEq1:  Iter= 11 NonCon=     1 RMS=3.38D-10 Max=9.97D-09
 FoFJK:  IHMeth= 1 ICntrl=     0 DoSepK=T KAlg= 1 I1Cent= 0 FoldK=F
 LinEq1:  Iter= 12 NonCon=     1 RMS=1.85D-10 Max=6.74D-09
 FoFJK:  IHMeth= 1 ICntrl=     0 DoSepK=T KAlg= 1 I1Cent= 0 FoldK=F
 LinEq1:  Iter= 13 NonCon=     1 RMS=7.77D-11 Max=4.49D-09
 FoFJK:  IHMeth= 1 ICntrl=     0 DoSepK=T KAlg= 1 I1Cent= 0 FoldK=F
 LinEq1:  Iter= 14 NonCon=     0 RMS=3.88D-11 Max=2.06D-09
 Linear equations converged to 4.180D-10 4.180D-09 after    14 iterations.
 FoFJK:  IHMeth= 1 ICntrl=     0 DoSepK=T KAlg= 1 I1Cent= 0 FoldK=F
 SCF Done:  E(RCAM-B3LYP) =  -606.599983979     a.u. after    9 cycles
            Convg  =    0.2433D-08                    54 Fock formations.
              S**2 =  0.0000                  -V/T =  2.0042

 **********************************************************************

            Population analysis using the SCF density.

 **********************************************************************

 Orbital symmetries:
       Occupied  (A) (A) (A) (A) (A) (A) (A) (A) (A) (A) (A) (A)
                 (A) (A) (A) (A) (A) (A) (A) (A) (A) (A) (A) (A)
                 (A) (A) (A) (A) (A) (A) (A) (A) (A) (A) (A) (A)
                 (A) (A) (A) (A) (A) (A) (A) (A)
       Virtual   (A) (A) (A) (A) (A) (A) (A) (A) (A) (A) (A) (A)
                 (A) (A) (A) (A) (A) (A) (A) (A) (A) (A) (A) (A)
                 (A) (A) (A) (A) (A) (A) (A) (A) (A) (A) (A) (A)
                 (A) (A) (A) (A) (A) (A) (A) (A) (A) (A) (A) (A)
                 (A) (A) (A) (A) (A) (A) (A) (A) (A) (A) (A) (A)
                 (A) (A) (A) (A) (A) (A) (A) (A) (A) (A) (A) (A)
                 (A) (A) (A) (A) (A) (A) (A) (A) (A) (A) (A) (A)
                 (A) (A) (A) (A) (A) (A) (A) (A) (A) (A) (A) (A)
                 (A) (A) (A) (A) (A) (A) (A) (A) (A) (A) (A) (A)
                 (A) (A) (A) (A) (A) (A) (A) (A) (A) (A) (A) (A)
                 (A) (A) (A) (A) (A) (A) (A) (A) (A) (A) (A) (A)
                 (A) (A) (A) (A) (A) (A) (A) (A) (A) (A) (A) (A)
                 (A) (A) (A) (A) (A) (A) (A) (A) (A) (A) (A) (A)
                 (A) (A) (A) (A) (A) (A) (A) (A) (A) (A) (A) (A)
                 (A) (A) (A) (A) (A) (A) (A) (A) (A) (A) (A) (A)
                 (A) (A) (A) (A) (A) (A) (A) (A) (A) (A) (A) (A)
                 (A) (A) (A) (A) (A) (A) (A) (A) (A) (A) (A) (A)
                 (A) (A) (A) (A) (A) (A) (A) (A) (A) (A) (A) (A)
                 (A) (A) (A) (A) (A) (A) (A) (A) (A) (A) (A) (A)
                 (A) (A) (A) (A) (A) (A) (A) (A) (A) (A) (A) (A)
                 (A) (A) (A) (A) (A) (A) (A) (A) (A) (A) (A) (A)
                 (A) (A) (A) (A) (A) (A) (A) (A) (A) (A) (A) (A)
                 (A) (A) (A) (A) (A) (A) (A) (A) (A) (A) (A) (A)
                 (A) (A) (A) (A) (A) (A) (A) (A) (A) (A) (A) (A)
                 (A) (A) (A) (A) (A) (A) (A) (A) (A) (A) (A) (A)
                 (A) (A) (A) (A) (A) (A) (A) (A) (A) (A) (A) (A)
                 (A) (A) (A) (A) (A) (A) (A) (A) (A) (A) (A) (A)
                 (A) (A) (A) (A) (A) (A) (A) (A) (A) (A) (A) (A)
                 (A) (A) (A) (A) (A) (A) (A) (A) (A) (A) (A) (A)
                 (A) (A) (A) (A) (A) (A) (A) (A) (A) (A) (A) (A)
                 (A) (A) (A) (A) (A) (A) (A) (A) (A) (A) (A) (A)
                 (A) (A) (A) (A) (A) (A) (A) (A) (A) (A) (A) (A)
                 (A) (A) (A) (A) (A) (A) (A) (A) (A) (A) (A) (A)
                 (A) (A) (A) (A) (A) (A) (A) (A) (A) (A) (A) (A)
                 (A) (A) (A) (A) (A) (A) (A) (A) (A) (A) (A) (A)
                 (A) (A) (A) (A) (A) (A) (A) (A) (A) (A) (A) (A)
                 (A) (A) (A) (A) (A) (A) (A) (A) (A) (A) (A) (A)
                 (A) (A) (A) (A) (A) (A) (A) (A) (A) (A) (A) (A)
                 (A) (A) (A) (A) (A) (A) (A) (A) (A) (A) (A) (A)
                 (A) (A) (A) (A) (A) (A) (A) (A) (A) (A) (A)
 The electronic state is 1-A.
 Alpha  occ. eigenvalues --  -19.24897 -19.22691 -19.22679 -14.62669 -14.41887
 Alpha  occ. eigenvalues --  -10.32566 -10.31822 -10.31167 -10.30318 -10.27322
 Alpha  occ. eigenvalues --  -10.27241 -10.26788  -1.30520  -1.17332  -1.12888
 Alpha  occ. eigenvalues --   -1.03036  -0.96475  -0.87765  -0.85775  -0.80886
 Alpha  occ. eigenvalues --   -0.76707  -0.71035  -0.67371  -0.64246  -0.62326
 Alpha  occ. eigenvalues --   -0.60734  -0.60544  -0.58550  -0.57556  -0.56430
 Alpha  occ. eigenvalues --   -0.55159  -0.53094  -0.50670  -0.49493  -0.48478
 Alpha  occ. eigenvalues --   -0.44808  -0.43189  -0.41392  -0.40603  -0.37777
 Alpha  occ. eigenvalues --   -0.37440  -0.36102  -0.31912  -0.27851
 Alpha virt. eigenvalues --   -0.04385   0.00618   0.02039   0.03052   0.04130
 Alpha virt. eigenvalues --    0.04991   0.05988   0.06508   0.06826   0.07445
 Alpha virt. eigenvalues --    0.08999   0.09732   0.10235   0.10557   0.11275
 Alpha virt. eigenvalues --    0.11530   0.12448   0.13230   0.14078   0.14684
 Alpha virt. eigenvalues --    0.15169   0.15923   0.16534   0.17103   0.17602
 Alpha virt. eigenvalues --    0.18183   0.18827   0.19409   0.19608   0.20163
 Alpha virt. eigenvalues --    0.21184   0.21802   0.21938   0.22522   0.23259
 Alpha virt. eigenvalues --    0.23950   0.24392   0.24593   0.25335   0.25970
 Alpha virt. eigenvalues --    0.26013   0.26539   0.27167   0.27497   0.28241
 Alpha virt. eigenvalues --    0.28510   0.28712   0.29401   0.29571   0.29867
 Alpha virt. eigenvalues --    0.30418   0.30646   0.31044   0.32044   0.32148
 Alpha virt. eigenvalues --    0.32759   0.32971   0.33608   0.34707   0.35173
 Alpha virt. eigenvalues --    0.35534   0.35779   0.36398   0.36632   0.36897
 Alpha virt. eigenvalues --    0.37613   0.38010   0.38255   0.38613   0.39341
 Alpha virt. eigenvalues --    0.40514   0.40654   0.41112   0.41694   0.41823
 Alpha virt. eigenvalues --    0.42514   0.43001   0.43348   0.43868   0.44531
 Alpha virt. eigenvalues --    0.44741   0.45483   0.46053   0.47108   0.47614
 Alpha virt. eigenvalues --    0.47831   0.48230   0.49025   0.49411   0.49821
 Alpha virt. eigenvalues --    0.50109   0.50848   0.51141   0.51447   0.52333
 Alpha virt. eigenvalues --    0.53346   0.54170   0.54560   0.55622   0.56103
 Alpha virt. eigenvalues --    0.56666   0.57723   0.58227   0.58775   0.59217
 Alpha virt. eigenvalues --    0.59647   0.60038   0.60630   0.62031   0.62242
 Alpha virt. eigenvalues --    0.62594   0.63183   0.63574   0.63901   0.64777
 Alpha virt. eigenvalues --    0.65574   0.65783   0.66554   0.67310   0.67326
 Alpha virt. eigenvalues --    0.67820   0.68476   0.68714   0.69579   0.69873
 Alpha virt. eigenvalues --    0.70625   0.71274   0.71371   0.72110   0.72390
 Alpha virt. eigenvalues --    0.73623   0.73952   0.74788   0.75177   0.75676
 Alpha virt. eigenvalues --    0.76265   0.76893   0.77242   0.77694   0.77859
 Alpha virt. eigenvalues --    0.78536   0.78925   0.80705   0.80959   0.81285
 Alpha virt. eigenvalues --    0.81568   0.82488   0.83652   0.84677   0.85236
 Alpha virt. eigenvalues --    0.85707   0.86174   0.87292   0.87736   0.88293
 Alpha virt. eigenvalues --    0.89381   0.89680   0.90802   0.91506   0.92189
 Alpha virt. eigenvalues --    0.92944   0.94469   0.95407   0.96574   0.98063
 Alpha virt. eigenvalues --    0.98923   0.99499   1.00193   1.02356   1.03240
 Alpha virt. eigenvalues --    1.03909   1.04916   1.05691   1.06502   1.06575
 Alpha virt. eigenvalues --    1.06898   1.08029   1.08907   1.12412   1.12867
 Alpha virt. eigenvalues --    1.14093   1.14930   1.15877   1.17560   1.18208
 Alpha virt. eigenvalues --    1.20834   1.21245   1.22206   1.23567   1.24668
 Alpha virt. eigenvalues --    1.26109   1.27130   1.28311   1.29431   1.31973
 Alpha virt. eigenvalues --    1.33358   1.34562   1.36330   1.37188   1.37455
 Alpha virt. eigenvalues --    1.38986   1.40033   1.41450   1.43854   1.45733
 Alpha virt. eigenvalues --    1.46114   1.48354   1.49660   1.50788   1.52483
 Alpha virt. eigenvalues --    1.53690   1.55181   1.55231   1.56230   1.58795
 Alpha virt. eigenvalues --    1.61622   1.63992   1.64996   1.67598   1.69623
 Alpha virt. eigenvalues --    1.71678   1.72379   1.72501   1.73232   1.74017
 Alpha virt. eigenvalues --    1.78419   1.79887   1.81253   1.82045   1.83547
 Alpha virt. eigenvalues --    1.85271   1.85661   1.86592   1.87039   1.89068
 Alpha virt. eigenvalues --    1.89443   1.91128   1.92071   1.93511   1.94909
 Alpha virt. eigenvalues --    1.96439   1.97393   1.98778   1.99185   1.99435
 Alpha virt. eigenvalues --    2.00576   2.03597   2.05128   2.07982   2.09624
 Alpha virt. eigenvalues --    2.09834   2.11336   2.12926   2.14164   2.15234
 Alpha virt. eigenvalues --    2.19398   2.21081   2.22469   2.23652   2.25264
 Alpha virt. eigenvalues --    2.25599   2.29412   2.31480   2.33647   2.35038
 Alpha virt. eigenvalues --    2.35794   2.37226   2.39458   2.40399   2.40962
 Alpha virt. eigenvalues --    2.42343   2.43260   2.44068   2.47367   2.48338
 Alpha virt. eigenvalues --    2.49730   2.50654   2.52150   2.54748   2.56244
 Alpha virt. eigenvalues --    2.59404   2.61163   2.62711   2.64236   2.66563
 Alpha virt. eigenvalues --    2.67384   2.69407   2.70467   2.73290   2.73637
 Alpha virt. eigenvalues --    2.74771   2.76536   2.80686   2.82340   2.83514
 Alpha virt. eigenvalues --    2.84333   2.85153   2.86384   2.87653   2.88333
 Alpha virt. eigenvalues --    2.89894   2.91640   2.92659   2.94844   2.95968
 Alpha virt. eigenvalues --    2.97055   2.98929   2.99739   3.01448   3.03922
 Alpha virt. eigenvalues --    3.04722   3.06515   3.07514   3.08868   3.11762
 Alpha virt. eigenvalues --    3.13230   3.13853   3.14954   3.15186   3.17214
 Alpha virt. eigenvalues --    3.19510   3.22309   3.23120   3.24425   3.27484
 Alpha virt. eigenvalues --    3.30293   3.30681   3.31252   3.32171   3.34411
 Alpha virt. eigenvalues --    3.36052   3.36691   3.38194   3.39697   3.41227
 Alpha virt. eigenvalues --    3.41712   3.41824   3.43176   3.44494   3.45490
 Alpha virt. eigenvalues --    3.47020   3.47296   3.49016   3.50007   3.50922
 Alpha virt. eigenvalues --    3.52232   3.52830   3.53192   3.54429   3.56777
 Alpha virt. eigenvalues --    3.58155   3.59356   3.59706   3.61413   3.62302
 Alpha virt. eigenvalues --    3.64403   3.66161   3.67005   3.67901   3.70499
 Alpha virt. eigenvalues --    3.71589   3.73113   3.74687   3.77564   3.81345
 Alpha virt. eigenvalues --    3.87713   3.89121   3.89803   3.95613   3.96428
 Alpha virt. eigenvalues --    3.98514   4.01329   4.04951   4.09860   4.10323
 Alpha virt. eigenvalues --    4.13531   4.18125   4.19014   4.20235   4.24177
 Alpha virt. eigenvalues --    4.26357   4.27297   4.29361   4.31375   4.33022
 Alpha virt. eigenvalues --    4.34755   4.38446   4.38893   4.41320   4.42324
 Alpha virt. eigenvalues --    4.48226   4.50438   4.52317   4.55412   4.59344
 Alpha virt. eigenvalues --    4.61977   4.65255   4.72080   4.73680   4.75709
 Alpha virt. eigenvalues --    4.78104   4.82270   4.83258   4.84580   4.87696
 Alpha virt. eigenvalues --    4.88504   4.93234   4.94644   4.95189   4.97009
 Alpha virt. eigenvalues --    4.97591   5.00846   5.04270   5.08963   5.10982
 Alpha virt. eigenvalues --    5.17346   5.20813   5.21541   5.24112   5.24920
 Alpha virt. eigenvalues --    5.27962   5.29490   5.32456   5.39205   5.40351
 Alpha virt. eigenvalues --    5.40934   5.42719   5.48133   5.49897   5.53994
 Alpha virt. eigenvalues --    5.56781   5.59087   5.64862   5.67689   5.69386
 Alpha virt. eigenvalues --    5.72606   5.75214   5.80009   5.90157   5.92702
 Alpha virt. eigenvalues --    5.98388   6.07031   6.07558   6.14546   6.20573
 Alpha virt. eigenvalues --    6.42134   6.44028   6.52871   6.56167   6.58897
 Alpha virt. eigenvalues --    6.60195   6.62388   6.64402   6.83911   6.92010
 Alpha virt. eigenvalues --    6.95132   6.97420   6.98272   7.02214   7.11350
 Alpha virt. eigenvalues --    7.30319   7.42423   7.44758   7.51780   7.53730
 Alpha virt. eigenvalues --    7.83467   7.85396  22.65906  22.74845  22.96378
 Alpha virt. eigenvalues --   22.97629  23.10586  23.22314  23.52524  32.47562
 Alpha virt. eigenvalues --   32.80475  44.47468  44.48758  44.65289
          Condensed to atoms (all electrons):
              1          2          3          4          5          6
     1  C    7.518579   0.446602  -0.123117   0.042391  -0.644303  -0.823632
     2  C    0.446602   6.396495   0.117579   0.020128   0.067863  -0.757182
     3  C   -0.123117   0.117579   6.240506   0.123559  -0.215998   0.227645
     4  C    0.042391   0.020128   0.123559   7.112386  -0.215371  -0.789785
     5  C   -0.644303   0.067863  -0.215998  -0.215371   7.481919  -0.629754
     6  C   -0.823632  -0.757182   0.227645  -0.789785  -0.629754   8.476809
     7  H    0.232473  -0.078365  -0.010667   0.017503   0.003294  -0.177666
     8  H    0.005197  -0.108441   0.308673  -0.084593   0.007391   0.015083
     9  H   -0.002142  -0.003454  -0.057024   0.420986  -0.189156   0.025992
    10  N   -0.102217   0.441146  -0.232102  -0.016696   0.005997  -0.015067
    11  O    0.004658  -0.082479   0.024134   0.019541  -0.005180  -0.009281
    12  O   -0.031874  -0.045969   0.021328  -0.002606  -0.004430   0.042428
    13  N   -0.001415   0.009630  -0.010236  -0.055518   0.111088  -0.000157
    14  H   -0.014386  -0.011632   0.002141  -0.066409   0.093456  -0.061265
    15  H    0.003641   0.009491  -0.002249   0.018782  -0.052202  -0.030854
    16  O   -0.190077   0.018906  -0.014392   0.053629   0.031675  -0.177513
    17  C    0.101780   0.021848   0.003225  -0.000806  -0.104184  -0.146552
    18  H    0.029512   0.000678   0.000482  -0.000347   0.002676  -0.016615
    19  H    0.002218   0.001847   0.001294  -0.002035   0.010545   0.021547
    20  H   -0.064325  -0.014880  -0.003386   0.001782   0.012499  -0.014377
              7          8          9         10         11         12
     1  C    0.232473   0.005197  -0.002142  -0.102217   0.004658  -0.031874
     2  C   -0.078365  -0.108441  -0.003454   0.441146  -0.082479  -0.045969
     3  C   -0.010667   0.308673  -0.057024  -0.232102   0.024134   0.021328
     4  C    0.017503  -0.084593   0.420986  -0.016696   0.019541  -0.002606
     5  C    0.003294   0.007391  -0.189156   0.005997  -0.005180  -0.004430
     6  C   -0.177666   0.015083   0.025992  -0.015067  -0.009281   0.042428
     7  H    0.465349   0.000818  -0.000629  -0.002002  -0.002644  -0.027536
     8  H    0.000818   0.413204  -0.004158   0.010373   0.002515  -0.003218
     9  H   -0.000629  -0.004158   0.524913  -0.000233   0.000221   0.000071
    10  N   -0.002002   0.010373  -0.000233   5.854822   0.070690   0.080665
    11  O   -0.002644   0.002515   0.000221   0.070690   8.664539  -0.100190
    12  O   -0.027536  -0.003218   0.000071   0.080665  -0.100190   8.663257
    13  N    0.001697  -0.000185   0.011885  -0.000475   0.000150   0.000153
    14  H   -0.000980   0.000197   0.021888   0.000143  -0.000013  -0.000010
    15  H    0.000735  -0.000026  -0.005041  -0.000076   0.000020   0.000011
    16  O    0.021642  -0.000552  -0.003817  -0.001361   0.000619   0.000172
    17  C   -0.012778   0.000082  -0.000150   0.002199   0.000001  -0.004385
    18  H   -0.005631   0.000005   0.000011   0.000131  -0.000009  -0.000241
    19  H   -0.015715   0.000018   0.000047   0.000217  -0.000040  -0.000360
    20  H    0.017078  -0.000101  -0.000058  -0.000941   0.000146   0.001017
             13         14         15         16         17         18
     1  C   -0.001415  -0.014386   0.003641  -0.190077   0.101780   0.029512
     2  C    0.009630  -0.011632   0.009491   0.018906   0.021848   0.000678
     3  C   -0.010236   0.002141  -0.002249  -0.014392   0.003225   0.000482
     4  C   -0.055518  -0.066409   0.018782   0.053629  -0.000806  -0.000347
     5  C    0.111088   0.093456  -0.052202   0.031675  -0.104184   0.002676
     6  C   -0.000157  -0.061265  -0.030854  -0.177513  -0.146552  -0.016615
     7  H    0.001697  -0.000980   0.000735   0.021642  -0.012778  -0.005631
     8  H   -0.000185   0.000197  -0.000026  -0.000552   0.000082   0.000005
     9  H    0.011885   0.021888  -0.005041  -0.003817  -0.000150   0.000011
    10  N   -0.000475   0.000143  -0.000076  -0.001361   0.002199   0.000131
    11  O    0.000150  -0.000013   0.000020   0.000619   0.000001  -0.000009
    12  O    0.000153  -0.000010   0.000011   0.000172  -0.004385  -0.000241
    13  N    6.677249   0.303504   0.363226   0.000819   0.014465   0.001356
    14  H    0.303504   0.577444  -0.046542  -0.015241  -0.002062   0.000080
    15  H    0.363226  -0.046542   0.472864   0.043663  -0.000020  -0.000314
    16  O    0.000819  -0.015241   0.043663   8.656927   0.002927  -0.039296
    17  C    0.014465  -0.002062  -0.000020   0.002927   5.947543   0.386127
    18  H    0.001356   0.000080  -0.000314  -0.039296   0.386127   0.378747
    19  H   -0.000031   0.000535  -0.001814  -0.036675   0.330594   0.017347
    20  H   -0.003902  -0.000118   0.000535   0.043628   0.305771  -0.021872
             19         20
     1  C    0.002218  -0.064325
     2  C    0.001847  -0.014880
     3  C    0.001294  -0.003386
     4  C   -0.002035   0.001782
     5  C    0.010545   0.012499
     6  C    0.021547  -0.014377
     7  H   -0.015715   0.017078
     8  H    0.000018  -0.000101
     9  H    0.000047  -0.000058
    10  N    0.000217  -0.000941
    11  O   -0.000040   0.000146
    12  O   -0.000360   0.001017
    13  N   -0.000031  -0.003902
    14  H    0.000535  -0.000118
    15  H   -0.001814   0.000535
    16  O   -0.036675   0.043628
    17  C    0.330594   0.305771
    18  H    0.017347  -0.021872
    19  H    0.323110  -0.006838
    20  H   -0.006838   0.386320
 Mulliken atomic charges:
              1
     1  C   -0.389565
     2  C   -0.449811
     3  C   -0.401396
     4  C   -0.596520
     5  C    0.232175
     6  C    0.840199
     7  H    0.574027
     8  H    0.437720
     9  H    0.259851
    10  N    0.904786
    11  O   -0.587397
    12  O   -0.588281
    13  N   -0.423302
    14  H    0.219269
    15  H    0.226169
    16  O   -0.395684
    17  C   -0.845627
    18  H    0.267172
    19  H    0.354191
    20  H    0.362025
 Sum of Mulliken atomic charges =   0.00000
 Mulliken charges with hydrogens summed into heavy atoms:
              1
     1  C    0.184462
     2  C   -0.449811
     3  C    0.036324
     4  C   -0.336670
     5  C    0.232175
     6  C    0.840199
    10  N    0.904786
    11  O   -0.587397
    12  O   -0.588281
    13  N    0.022137
    16  O   -0.395684
    17  C    0.137761
 Sum of Mulliken charges with hydrogens summed into heavy atoms =   0.00000
 Electronic spatial extent (au):  <R**2>=           2188.4960
 Charge=              0.0000 electrons
 Dipole moment (field-independent basis, Debye):
    X=             -6.0320    Y=             -0.9530    Z=              0.9937  Tot=              6.1871
 Quadrupole moment (field-independent basis, Debye-Ang):
   XX=            -79.9002   YY=            -58.8066   ZZ=            -71.4216
   XY=             -2.1454   XZ=             -3.8641   YZ=             -1.2986
 Traceless Quadrupole moment (field-independent basis, Debye-Ang):
   XX=             -9.8574   YY=             11.2362   ZZ=             -1.3788
   XY=             -2.1454   XZ=             -3.8641   YZ=             -1.2986
 Octapole moment (field-independent basis, Debye-Ang**2):
  XXX=            -80.4158  YYY=             -4.2419  ZZZ=             -0.7929  XYY=            -28.9548
  XXY=            -12.1710  XXZ=             13.3998  XZZ=              6.5633  YZZ=              6.9550
  YYZ=              0.0622  XYZ=              4.6627
 Hexadecapole moment (field-independent basis, Debye-Ang**3):
 XXXX=          -1902.8987 YYYY=           -810.0388 ZZZZ=            -89.0694 XXXY=             15.0633
 XXXZ=            -37.9973 YYYX=             -6.1771 YYYZ=             -6.3321 ZZZX=             -1.2055
 ZZZY=             -1.0050 XXYY=           -408.5939 XXZZ=           -311.0131 YYZZ=           -174.3676
 XXYZ=            -22.8805 YYXZ=             -8.8172 ZZXY=             -2.3730
 N-N= 6.959005479448D+02 E-N=-2.810218711312D+03  KE= 6.040645578214D+02
 Calling FoFJK, ICntrl=      2127 FMM=F ISym2X=0 I1Cent= 0 IOpClX= 0 NMat=1 NMatS=1 NMatT=0.
 FoFJK:  IHMeth= 1 ICntrl=  2127 DoSepK=T KAlg= 1 I1Cent= 0 FoldK=F
 ***** Axes restored to original set *****
 -------------------------------------------------------------------
 Center     Atomic                   Forces (Hartrees/Bohr)
 Number     Number              X              Y              Z
 -------------------------------------------------------------------
      1        6           0.009482671    0.001739778   -0.012329120
      2        6           0.006961289    0.002842057    0.000875485
      3        6           0.000111699   -0.006250116    0.003622962
      4        6           0.004297707    0.004065106   -0.000690270
      5        6           0.008892057    0.000511264   -0.001213943
      6        6          -0.045569077    0.011618198   -0.003339980
      7        1          -0.002868572   -0.001316443   -0.003414678
      8        1          -0.000115539   -0.001106495    0.001613717
      9        1          -0.000617319    0.000705012    0.001511840
     10        7          -0.000679478    0.012923316    0.000153849
     11        8           0.001388220   -0.009201149    0.019032771
     12        8           0.000333194   -0.005414356   -0.020212705
     13        7           0.001319864    0.002981702   -0.000209395
     14        1          -0.001819241    0.000409293    0.002226933
     15        1          -0.003301117   -0.000046256   -0.002537046
     16        8           0.023360262   -0.007246944    0.015303273
     17        6          -0.000506847   -0.006428894   -0.002420342
     18        1           0.000214820    0.000538893    0.000368683
     19        1          -0.000698075    0.000591095    0.000361147
     20        1          -0.000186518   -0.001915062    0.001296819
 -------------------------------------------------------------------
 Cartesian Forces:  Max     0.045569077 RMS     0.008850125

 GradGradGradGradGradGradGradGradGradGradGradGradGradGradGradGradGradGrad
 Berny optimization.
 Internal  Forces:  Max     0.023080597 RMS     0.006148372
 Search for a local minimum.
 Step number   1 out of a maximum of   98
 All quantities printed in internal units (Hartrees-Bohrs-Radians)
 Mixed Optimization -- RFO/linear search
 Second derivative matrix not updated -- first step.
     Eigenvalues ---    0.00933   0.00933   0.01398   0.01862   0.01980
     Eigenvalues ---    0.02045   0.02086   0.02212   0.02226   0.02237
     Eigenvalues ---    0.02249   0.02263   0.02278   0.02702   0.03977
     Eigenvalues ---    0.10145   0.10684   0.16000   0.16000   0.16000
     Eigenvalues ---    0.16000   0.16000   0.16000   0.16000   0.16000
     Eigenvalues ---    0.22315   0.22761   0.23380   0.24306   0.24973
     Eigenvalues ---    0.25000   0.25000   0.25000   0.25000   0.34546
     Eigenvalues ---    0.34564   0.35236   0.35393   0.35875   0.36029
     Eigenvalues ---    0.37294   0.41744   0.42125   0.42958   0.45934
     Eigenvalues ---    0.46006   0.46131   0.46941   0.47800   0.48079
     Eigenvalues ---    0.49430   0.53386   0.90618   0.912161000.00000
     Eigenvalues --- 1000.000001000.000001000.000001000.000001000.00000
     Eigenvalues --- 1000.000001000.000001000.000001000.000001000.00000
     Eigenvalues --- 1000.000001000.000001000.000001000.000001000.00000
     Eigenvalues --- 1000.000001000.000001000.000001000.000001000.00000
     Eigenvalues --- 1000.000001000.000001000.000001000.000001000.00000
     Eigenvalues --- 1000.000001000.000001000.000001000.000001000.00000
     Eigenvalues --- 1000.000001000.000001000.00000
 RFO step:  Lambda=-2.40282184D-02 EMin= 9.32703294D-03
 Linear search not attempted -- first point.
 Maximum step size (   0.300) exceeded in Quadratic search.
    -- Step size scaled by   0.486
 Iteration  1 RMS(Cart)=  0.07802022 RMS(Int)=  0.00303624
 Iteration  2 RMS(Cart)=  0.00407415 RMS(Int)=  0.00086844
 Iteration  3 RMS(Cart)=  0.00001013 RMS(Int)=  0.00086842
 Iteration  4 RMS(Cart)=  0.00000000 RMS(Int)=  0.00086842
 Variable       Old X    -DE/DX   Delta X   Delta X   Delta X     New X
                                 (Linear)    (Quad)   (Total)
    R1        2.62929  -0.00372   0.00000  -0.00368  -0.00368   2.62561
    R2        2.61898  -0.00056   0.00000  -0.00145  -0.00095   2.61803
    R3        2.04035  -0.00349   0.00000  -0.00442  -0.00442   2.03594
    R4        2.61451  -0.00531   0.00000  -0.00423  -0.00472   2.60979
    R5        2.75406  -0.00194   0.00000  -0.00237  -0.00237   2.75168
    R6        2.62360  -0.00862   0.00000  -0.00747  -0.00797   2.61563
    R7        2.04277  -0.00193   0.00000  -0.00245  -0.00245   2.04032
    R8        2.63244  -0.00347   0.00000  -0.00337  -0.00339   2.62905
    R9        2.05041  -0.00169   0.00000  -0.00218  -0.00218   2.04824
   R10        2.66482   0.00123   0.00000   0.00035   0.00084   2.66567
   R11        2.60445  -0.00376   0.00000  -0.00353  -0.00353   2.60093
   R12        2.56595   0.01402   0.00000   0.01222   0.01222   2.57817
   R13        2.32378  -0.02100   0.00000  -0.01091  -0.01091   2.31287
   R14        2.32649  -0.02076   0.00000  -0.01085  -0.01085   2.31564
   R15        1.90684  -0.00274   0.00000  -0.00274  -0.00274   1.90409
   R16        1.90905  -0.00329   0.00000  -0.00331  -0.00331   1.90574
   R17        2.68764  -0.00315   0.00000  -0.00344  -0.00344   2.68420
   R18        2.05293  -0.00024   0.00000  -0.00031  -0.00031   2.05262
   R19        2.06418  -0.00031   0.00000  -0.00040  -0.00040   2.06378
   R20        2.06388  -0.00123   0.00000  -0.00162  -0.00162   2.06226
    A1        2.06736   0.00463   0.00000   0.00428   0.00532   2.07269
    A2        2.07728  -0.00323   0.00000  -0.00461  -0.00527   2.07201
    A3        2.13854  -0.00140   0.00000   0.00023  -0.00039   2.13814
    A4        2.13528  -0.00090   0.00000  -0.00269  -0.00257   2.13271
    A5        2.06399   0.00146   0.00000   0.00314   0.00308   2.06707
    A6        2.08391  -0.00056   0.00000  -0.00044  -0.00050   2.08341
    A7        2.06527   0.00111   0.00000   0.00302   0.00259   2.06786
    A8        2.09565  -0.00064   0.00000  -0.00173  -0.00154   2.09412
    A9        2.12226  -0.00047   0.00000  -0.00128  -0.00108   2.12118
   A10        2.11984  -0.00025   0.00000  -0.00143  -0.00136   2.11848
   A11        2.08843   0.00004   0.00000   0.00049   0.00045   2.08888
   A12        2.07489   0.00021   0.00000   0.00095   0.00092   2.07580
   A13        2.06922   0.00413   0.00000   0.00320   0.00427   2.07349
   A14        2.13928  -0.00357   0.00000  -0.00447  -0.00505   2.13422
   A15        2.07373  -0.00057   0.00000   0.00108   0.00057   2.07430
   A16        2.10937  -0.00869   0.00000  -0.00627  -0.00833   2.10105
   A17        2.08573   0.02308   0.00000   0.06374   0.06049   2.14622
   A18        1.99660  -0.00828   0.00000   0.00242  -0.00226   1.99433
   A19        2.05606   0.00219   0.00000   0.00389   0.00387   2.05993
   A20        2.05540   0.00195   0.00000   0.00346   0.00344   2.05884
   A21        2.17172  -0.00414   0.00000  -0.00735  -0.00737   2.16435
   A22        2.02992   0.00064   0.00000   0.00465   0.00456   2.03448
   A23        2.01237   0.00218   0.00000   0.00875   0.00866   2.02103
   A24        1.99755  -0.00043   0.00000   0.00284   0.00272   2.00027
   A25        2.03241   0.01889   0.00000   0.03351   0.03351   2.06593
   A26        1.84713   0.00024   0.00000   0.00021   0.00021   1.84735
   A27        1.93556   0.00114   0.00000   0.00345   0.00344   1.93900
   A28        1.93414   0.00105   0.00000   0.00280   0.00280   1.93694
   A29        1.91584  -0.00055   0.00000  -0.00141  -0.00142   1.91442
   A30        1.91511  -0.00157   0.00000  -0.00505  -0.00505   1.91005
   A31        1.91502  -0.00035   0.00000  -0.00013  -0.00014   1.91488
    D1       -0.00138   0.00091   0.00000   0.00859   0.00830   0.00692
    D2       -3.14059   0.00045   0.00000   0.00714   0.00712  -3.13346
    D3        3.13541  -0.00042   0.00000  -0.01394  -0.01464   3.12077
    D4       -0.00379  -0.00088   0.00000  -0.01539  -0.01582  -0.01961
    D5       -0.00377   0.00183   0.00000   0.00937   0.00928   0.00551
    D6       -2.67400  -0.01092   0.00000  -0.13660  -0.13859  -2.81259
    D7       -3.14038   0.00321   0.00000   0.03276   0.03315  -3.10723
    D8        0.47257  -0.00953   0.00000  -0.11322  -0.11472   0.35785
    D9        0.00338  -0.00201   0.00000  -0.01603  -0.01585  -0.01247
   D10       -3.13945  -0.00086   0.00000  -0.00686  -0.00669   3.13704
   D11       -3.14063  -0.00154   0.00000  -0.01456  -0.01465   3.12790
   D12       -0.00027  -0.00039   0.00000  -0.00539  -0.00550  -0.00577
   D13        3.13585   0.00090   0.00000   0.01059   0.01046  -3.13687
   D14       -0.00543   0.00009   0.00000  -0.00124  -0.00137  -0.00680
   D15       -0.00342   0.00046   0.00000   0.00919   0.00932   0.00590
   D16        3.13848  -0.00036   0.00000  -0.00264  -0.00251   3.13597
   D17       -0.00023   0.00041   0.00000   0.00562   0.00585   0.00562
   D18        3.13330   0.00131   0.00000   0.00712   0.00693   3.14023
   D19       -3.14057  -0.00076   0.00000  -0.00369  -0.00345   3.13916
   D20       -0.00704   0.00014   0.00000  -0.00220  -0.00237  -0.00941
   D21       -0.00469   0.00217   0.00000   0.01146   0.01101   0.00631
   D22        3.08907   0.00207   0.00000   0.00681   0.00608   3.09515
   D23       -3.13829   0.00127   0.00000   0.00998   0.00994  -3.12835
   D24       -0.04452   0.00117   0.00000   0.00533   0.00501  -0.03951
   D25        0.00673  -0.00333   0.00000  -0.01912  -0.01868  -0.01195
   D26        2.69944   0.01682   0.00000   0.13567   0.13333   2.83277
   D27       -3.08886  -0.00314   0.00000  -0.01449  -0.01377  -3.10263
   D28       -0.39615   0.01700   0.00000   0.14031   0.13824  -0.25791
   D29        0.43419  -0.00084   0.00000  -0.00198  -0.00190   0.43229
   D30        2.84463   0.00200   0.00000   0.01973   0.01987   2.86451
   D31       -2.75534  -0.00082   0.00000  -0.00659  -0.00673  -2.76208
   D32       -0.34490   0.00203   0.00000   0.01512   0.01504  -0.32986
   D33       -0.44523   0.00623   0.00000   0.07345   0.07516  -0.37007
   D34        3.13868  -0.00494   0.00000  -0.05990  -0.06162   3.07706
   D35       -3.14145   0.00113   0.00000   0.01828   0.01828  -3.12316
   D36       -1.06471   0.00123   0.00000   0.01856   0.01856  -1.04615
   D37        1.06664   0.00230   0.00000   0.02270   0.02271   1.08935
         Item               Value     Threshold  Converged?
 Maximum Force            0.023081     0.000015     NO 
 RMS     Force            0.006148     0.000010     NO 
 Maximum Displacement     0.298720     0.000060     NO 
 RMS     Displacement     0.078121     0.000040     NO 
 Predicted change in Energy=-9.939893D-03
 GradGradGradGradGradGradGradGradGradGradGradGradGradGradGradGradGradGrad

                          Input orientation:                          
 ---------------------------------------------------------------------
 Center     Atomic      Atomic             Coordinates (Angstroms)
 Number     Number       Type             X           Y           Z
 ---------------------------------------------------------------------
      1          6           0       -0.397951   -0.171444   -0.020983
      2          6           0       -0.502944    0.583209   -1.182855
      3          6           0       -0.404178    0.017783   -2.438964
      4          6           0       -0.178572   -1.344552   -2.533650
      5          6           0       -0.058690   -2.139635   -1.398305
      6          6           0       -0.178854   -1.535102   -0.129479
      7          1           0       -0.464167    0.330458    0.930037
      8          1           0       -0.495412    0.637520   -3.318359
      9          1           0       -0.099000   -1.808870   -3.509802
     10          7           0       -0.722941    2.017417   -1.060554
     11          8           0       -0.819327    2.674178   -2.088829
     12          8           0       -0.812559    2.490961    0.066074
     13          7           0        0.112181   -3.503421   -1.470640
     14          1           0        0.523439   -3.861753   -2.317827
     15          1           0        0.433576   -3.950859   -0.625933
     16          8           0       -0.427240   -2.410194    0.887306
     17          6           0       -0.485042   -1.904977    2.213578
     18          1           0       -0.671413   -2.764793    2.850611
     19          1           0        0.459258   -1.435066    2.496728
     20          1           0       -1.300478   -1.188076    2.323387
 ---------------------------------------------------------------------
                    Distance matrix (angstroms):
                    1          2          3          4          5
     1  C    0.000000
     2  C    1.389414   0.000000
     3  C    2.425382   1.381040   0.000000
     4  C    2.781691   2.376158   1.384132   0.000000
     5  C    2.426085   2.767248   2.420080   1.391236   0.000000
     6  C    1.385401   2.387860   2.792122   2.411710   1.410609
     7  H    1.077371   2.128309   3.384011   3.858024   3.418617
     8  H    3.396560   2.136209   1.079692   2.155173   3.404398
     9  H    3.865539   3.361532   2.139273   1.083880   2.137627
    10  N    2.444881   1.456128   2.449522   3.710686   4.223315
    11  O    3.542755   2.300661   2.711342   4.093730   4.922214
    12  O    2.695901   2.301131   3.543811   4.676715   4.914788
    13  N    3.669306   4.142673   3.688245   2.423889   1.376350
    14  H    4.443291   4.700991   3.990733   2.622155   2.037176
    15  H    3.916807   4.663154   4.442863   3.287391   2.029634
    16  O    2.416164   3.640297   4.118213   3.591708   2.330890
    17  C    2.829484   4.210361   5.034848   4.790007   3.644521
    18  H    3.878954   5.244649   5.982787   5.590191   4.338149
    19  H    2.944556   4.305646   5.217024   5.071461   3.991987
    20  H    2.710012   4.008396   4.993740   4.987380   4.037139
                    6          7          8          9         10
     6  C    0.000000
     7  H    2.164322   0.000000
     8  H    3.871622   4.259593   0.000000
     9  H    3.392331   4.941886   2.485683   0.000000
    10  N    3.712590   2.622070   2.655856   4.585694   0.000000
    11  O    4.686928   3.838322   2.400967   4.757705   1.223918
    12  O    4.080319   2.352782   3.871720   5.637783   1.225384
    13  N    2.399519   4.560049   4.575000   2.659752   5.598683
    14  H    3.270381   5.394314   4.720443   2.454091   6.139939
    15  H    2.541146   4.642915   5.400500   3.631591   6.094813
    16  O    1.364307   2.741234   5.194308   4.450156   4.846168
    17  C    2.391751   2.577805   6.088245   5.737189   5.114852
    18  H    3.261240   3.648579   7.047191   6.457267   6.178139
    19  H    2.704469   2.534621   6.246779   6.043987   5.096223
    20  H    2.719378   2.224137   5.984166   5.987907   4.696786
                   11         12         13         14         15
    11  O    0.000000
    12  O    2.162688   0.000000
    13  N    6.277945   6.256936   0.000000
    14  H    6.676366   6.915552   1.007602   0.000000
    15  H    6.899344   6.597634   1.008476   1.696620   0.000000
    16  O    5.904401   4.984398   2.654436   3.644680   2.324768
    17  C    6.292147   4.903398   4.060192   5.037821   3.618331
    18  H    7.348629   5.949498   4.453403   5.416987   3.835898
    19  H    6.288720   4.789497   4.487600   5.391926   4.010098
    20  H    5.883550   4.343829   4.663804   5.658276   4.397545
                   16         17         18         19         20
    16  O    0.000000
    17  C    1.420416   0.000000
    18  H    2.009957   1.086199   0.000000
    19  H    2.080142   1.092104   1.780962   0.000000
    20  H    2.078087   1.091302   1.777561   1.785419   0.000000
 Stoichiometry    C7H8N2O3
 Framework group  C1[X(C7H8N2O3)]
 Deg. of freedom    54
 Full point group                 C1      NOp   1
 Largest Abelian subgroup         C1      NOp   1
 Largest concise Abelian subgroup C1      NOp   1
                         Standard orientation:                         
 ---------------------------------------------------------------------
 Center     Atomic      Atomic             Coordinates (Angstroms)
 Number     Number       Type             X           Y           Z
 ---------------------------------------------------------------------
      1          6           0        0.103434    0.720169    0.102496
      2          6           0        1.150737   -0.188532    0.013670
      3          6           0        0.938097   -1.550570   -0.069433
      4          6           0       -0.364650   -2.017712   -0.048205
      5          6           0       -1.445159   -1.146571    0.047445
      6          6           0       -1.196092    0.240181    0.116014
      7          1           0        0.333982    1.769394    0.184362
      8          1           0        1.778555   -2.224507   -0.141365
      9          1           0       -0.554036   -3.082916   -0.113550
     10          7           0        2.514073    0.322953    0.010401
     11          8           0        3.430727   -0.483725   -0.073212
     12          8           0        2.672801    1.536067    0.079140
     13          7           0       -2.748979   -1.586367    0.016247
     14          1           0       -2.910372   -2.538574    0.303504
     15          1           0       -3.442081   -0.927772    0.337006
     16          8           0       -2.278333    1.019183   -0.172506
     17          6           0       -2.146943    2.428363   -0.051961
     18          1           0       -3.119210    2.839804   -0.307388
     19          1           0       -1.883813    2.712712    0.969117
     20          1           0       -1.396778    2.811586   -0.745742
 ---------------------------------------------------------------------
 Rotational constants (GHZ):      1.5904913      0.6761251      0.4771009
 Basis read from rwf:  (5D, 7F)
 There are   525 symmetry adapted basis functions of A   symmetry.
 Integral buffers will be    131072 words long.
 Raffenetti 2 integral format.
 Two-electron integral symmetry is turned on.
   525 basis functions,   793 primitive gaussians,   597 cartesian basis functions
    44 alpha electrons       44 beta electrons
       nuclear repulsion energy       694.6484055020 Hartrees.
 NAtoms=   20 NActive=   20 NUniq=   20 SFac= 7.50D-01 NAtFMM=   80 NAOKFM=F Big=F
 One-electron integrals computed using PRISM.
 NBasis=   525 RedAO= T  NBF=   525
 NBsUse=   522 1.00D-06 NBFU=   522
 Initial guess read from the read-write file.
 B after Tr=     0.000000    0.000000    0.000000
         Rot=    1.000000    0.000000    0.000000    0.000000 Ang=   0.00 deg.
 Initial guess orbital symmetries:
       Occupied  (A) (A) (A) (A) (A) (A) (A) (A) (A) (A) (A) (A)
                 (A) (A) (A) (A) (A) (A) (A) (A) (A) (A) (A) (A)
                 (A) (A) (A) (A) (A) (A) (A) (A) (A) (A) (A) (A)
                 (A) (A) (A) (A) (A) (A) (A) (A)
       Virtual   (A) (A) (A) (A) (A) (A) (A) (A) (A) (A) (A) (A)
                 (A) (A) (A) (A) (A) (A) (A) (A) (A) (A) (A) (A)
                 (A) (A) (A) (A) (A) (A) (A) (A) (A) (A) (A) (A)
                 (A) (A) (A) (A) (A) (A) (A) (A) (A) (A) (A) (A)
                 (A) (A) (A) (A) (A) (A) (A) (A) (A) (A) (A) (A)
                 (A) (A) (A) (A) (A) (A) (A) (A) (A) (A) (A) (A)
                 (A) (A) (A) (A) (A) (A) (A) (A) (A) (A) (A) (A)
                 (A) (A) (A) (A) (A) (A) (A) (A) (A) (A) (A) (A)
                 (A) (A) (A) (A) (A) (A) (A) (A) (A) (A) (A) (A)
                 (A) (A) (A) (A) (A) (A) (A) (A) (A) (A) (A) (A)
                 (A) (A) (A) (A) (A) (A) (A) (A) (A) (A) (A) (A)
                 (A) (A) (A) (A) (A) (A) (A) (A) (A) (A) (A) (A)
                 (A) (A) (A) (A) (A) (A) (A) (A) (A) (A) (A) (A)
                 (A) (A) (A) (A) (A) (A) (A) (A) (A) (A) (A) (A)
                 (A) (A) (A) (A) (A) (A) (A) (A) (A) (A) (A) (A)
                 (A) (A) (A) (A) (A) (A) (A) (A) (A) (A) (A) (A)
                 (A) (A) (A) (A) (A) (A) (A) (A) (A) (A) (A) (A)
                 (A) (A) (A) (A) (A) (A) (A) (A) (A) (A) (A) (A)
                 (A) (A) (A) (A) (A) (A) (A) (A) (A) (A) (A) (A)
                 (A) (A) (A) (A) (A) (A) (A) (A) (A) (A) (A) (A)
                 (A) (A) (A) (A) (A) (A) (A) (A) (A) (A) (A) (A)
                 (A) (A) (A) (A) (A) (A) (A) (A) (A) (A) (A) (A)
                 (A) (A) (A) (A) (A) (A) (A) (A) (A) (A) (A) (A)
                 (A) (A) (A) (A) (A) (A) (A) (A) (A) (A) (A) (A)
                 (A) (A) (A) (A) (A) (A) (A) (A) (A) (A) (A) (A)
                 (A) (A) (A) (A) (A) (A) (A) (A) (A) (A) (A) (A)
                 (A) (A) (A) (A) (A) (A) (A) (A) (A) (A) (A) (A)
                 (A) (A) (A) (A) (A) (A) (A) (A) (A) (A) (A) (A)
                 (A) (A) (A) (A) (A) (A) (A) (A) (A) (A) (A) (A)
                 (A) (A) (A) (A) (A) (A) (A) (A) (A) (A) (A) (A)
                 (A) (A) (A) (A) (A) (A) (A) (A) (A) (A) (A) (A)
                 (A) (A) (A) (A) (A) (A) (A) (A) (A) (A) (A) (A)
                 (A) (A) (A) (A) (A) (A) (A) (A) (A) (A) (A) (A)
                 (A) (A) (A) (A) (A) (A) (A) (A) (A) (A) (A) (A)
                 (A) (A) (A) (A) (A) (A) (A) (A) (A) (A) (A) (A)
                 (A) (A) (A) (A) (A) (A) (A) (A) (A) (A) (A) (A)
                 (A) (A) (A) (A) (A) (A) (A) (A) (A) (A) (A) (A)
                 (A) (A) (A) (A) (A) (A) (A) (A) (A) (A) (A) (A)
                 (A) (A) (A) (A) (A) (A) (A) (A) (A) (A) (A) (A)
                 (A) (A) (A) (A) (A) (A) (A) (A) (A) (A)
 Harris functional with IExCor=20419 diagonalized for initial guess.
 ExpMin= 4.85D-02 ExpMax= 2.70D+04 ExpMxC= 9.22D+02 IAcc=3 IRadAn=         5 AccDes= 0.00D+00
 HarFok:  IExCor=20419 AccDes= 0.00D+00 IRadAn=         5 IDoV= 1
 ScaDFX=  1.000000  1.000000  1.000000  1.000000
 FoFCou: FMM=F IPFlag=           0 FMFlag=      100000 FMFlg1=           0
         NFxFlg=           0 DoJE=T BraDBF=F KetDBF=T FulRan=T
         Omega=  0.000000  0.000000  1.000000  0.000000  0.000000 ICntrl=     500 IOpCl=  0
         NMat0=    1 NMatS0=    1 NMatT0=    0 NMatD0=    1 NMtDS0=    0 NMtDT0=    0
         I1Cent=           4 NGrid=           0.
 Petite list used in FoFCou.
 FoFJK:  IHMeth= 1 ICntrl=     0 DoSepK=T KAlg= 1 I1Cent= 0 FoldK=F
 Gradient too large for Newton-Raphson -- use scaled steepest descent instead.
 FoFJK:  IHMeth= 1 ICntrl=     0 DoSepK=T KAlg= 1 I1Cent= 0 FoldK=F
 FoFJK:  IHMeth= 1 ICntrl=     0 DoSepK=T KAlg= 1 I1Cent= 0 FoldK=F
 FoFJK:  IHMeth= 1 ICntrl=     0 DoSepK=T KAlg= 1 I1Cent= 0 FoldK=F
 FoFJK:  IHMeth= 1 ICntrl=     0 DoSepK=T KAlg= 1 I1Cent= 0 FoldK=F
 FoFJK:  IHMeth= 1 ICntrl=     0 DoSepK=T KAlg= 1 I1Cent= 0 FoldK=F
 FoFJK:  IHMeth= 1 ICntrl=     0 DoSepK=T KAlg= 1 I1Cent= 0 FoldK=F
 FoFJK:  IHMeth= 1 ICntrl=     0 DoSepK=T KAlg= 1 I1Cent= 0 FoldK=F
 Gradient too large for Newton-Raphson -- use scaled steepest descent instead.
 FoFJK:  IHMeth= 1 ICntrl=     0 DoSepK=T KAlg= 1 I1Cent= 0 FoldK=F
 FoFJK:  IHMeth= 1 ICntrl=     0 DoSepK=T KAlg= 1 I1Cent= 0 FoldK=F
 FoFJK:  IHMeth= 1 ICntrl=     0 DoSepK=T KAlg= 1 I1Cent= 0 FoldK=F
 Gradient too large for Newton-Raphson -- use scaled steepest descent instead.
 FoFJK:  IHMeth= 1 ICntrl=     0 DoSepK=T KAlg= 1 I1Cent= 0 FoldK=F
 FoFJK:  IHMeth= 1 ICntrl=     0 DoSepK=T KAlg= 1 I1Cent= 0 FoldK=F
 FoFJK:  IHMeth= 1 ICntrl=     0 DoSepK=T KAlg= 1 I1Cent= 0 FoldK=F
 LinEq1:  Iter=  0 NonCon=     1 RMS=3.90D-05 Max=2.75D-03
 AX will form     1 AO Fock derivatives at one time.
 FoFJK:  IHMeth= 1 ICntrl=     0 DoSepK=T KAlg= 1 I1Cent= 0 FoldK=F
 LinEq1:  Iter=  1 NonCon=     1 RMS=4.65D-05 Max=3.35D-03
 FoFJK:  IHMeth= 1 ICntrl=     0 DoSepK=T KAlg= 1 I1Cent= 0 FoldK=F
 LinEq1:  Iter=  2 NonCon=     1 RMS=1.22D-05 Max=8.15D-04
 FoFJK:  IHMeth= 1 ICntrl=     0 DoSepK=T KAlg= 1 I1Cent= 0 FoldK=F
 LinEq1:  Iter=  3 NonCon=     1 RMS=1.10D-05 Max=9.32D-04
 FoFJK:  IHMeth= 1 ICntrl=     0 DoSepK=T KAlg= 1 I1Cent= 0 FoldK=F
 LinEq1:  Iter=  4 NonCon=     1 RMS=3.07D-06 Max=1.05D-04
 FoFJK:  IHMeth= 1 ICntrl=     0 DoSepK=T KAlg= 1 I1Cent= 0 FoldK=F
 LinEq1:  Iter=  5 NonCon=     1 RMS=2.23D-06 Max=6.29D-05
 FoFJK:  IHMeth= 1 ICntrl=     0 DoSepK=T KAlg= 1 I1Cent= 0 FoldK=F
 LinEq1:  Iter=  6 NonCon=     1 RMS=8.10D-07 Max=2.42D-05
 FoFJK:  IHMeth= 1 ICntrl=     0 DoSepK=T KAlg= 1 I1Cent= 0 FoldK=F
 LinEq1:  Iter=  7 NonCon=     1 RMS=5.20D-07 Max=1.84D-05
 FoFJK:  IHMeth= 1 ICntrl=     0 DoSepK=T KAlg= 1 I1Cent= 0 FoldK=F
 LinEq1:  Iter=  8 NonCon=     1 RMS=2.13D-07 Max=7.30D-06
 FoFJK:  IHMeth= 1 ICntrl=     0 DoSepK=T KAlg= 1 I1Cent= 0 FoldK=F
 LinEq1:  Iter=  9 NonCon=     1 RMS=1.23D-07 Max=5.15D-06
 FoFJK:  IHMeth= 1 ICntrl=     0 DoSepK=T KAlg= 1 I1Cent= 0 FoldK=F
 LinEq1:  Iter= 10 NonCon=     1 RMS=5.68D-08 Max=4.42D-06
 FoFJK:  IHMeth= 1 ICntrl=     0 DoSepK=T KAlg= 1 I1Cent= 0 FoldK=F
 LinEq1:  Iter= 11 NonCon=     1 RMS=2.65D-08 Max=1.26D-06
 FoFJK:  IHMeth= 1 ICntrl=     0 DoSepK=T KAlg= 1 I1Cent= 0 FoldK=F
 LinEq1:  Iter= 12 NonCon=     1 RMS=1.39D-08 Max=6.34D-07
 FoFJK:  IHMeth= 1 ICntrl=     0 DoSepK=T KAlg= 1 I1Cent= 0 FoldK=F
 LinEq1:  Iter= 13 NonCon=     0 RMS=5.65D-09 Max=1.92D-07
 Linear equations converged to 2.051D-08 2.051D-07 after    13 iterations.
 FoFJK:  IHMeth= 1 ICntrl=     0 DoSepK=T KAlg= 1 I1Cent= 0 FoldK=F
 FoFJK:  IHMeth= 1 ICntrl=     0 DoSepK=T KAlg= 1 I1Cent= 0 FoldK=F
 FoFJK:  IHMeth= 1 ICntrl=     0 DoSepK=T KAlg= 1 I1Cent= 0 FoldK=F
 LinEq1:  Iter=  0 NonCon=     1 RMS=8.50D-08 Max=7.44D-06
 FoFJK:  IHMeth= 1 ICntrl=     0 DoSepK=T KAlg= 1 I1Cent= 0 FoldK=F
 LinEq1:  Iter=  1 NonCon=     1 RMS=7.00D-08 Max=4.61D-06
 FoFJK:  IHMeth= 1 ICntrl=     0 DoSepK=T KAlg= 1 I1Cent= 0 FoldK=F
 LinEq1:  Iter=  2 NonCon=     1 RMS=2.30D-08 Max=1.13D-06
 FoFJK:  IHMeth= 1 ICntrl=     0 DoSepK=T KAlg= 1 I1Cent= 0 FoldK=F
 LinEq1:  Iter=  3 NonCon=     1 RMS=1.76D-08 Max=8.44D-07
 FoFJK:  IHMeth= 1 ICntrl=     0 DoSepK=T KAlg= 1 I1Cent= 0 FoldK=F
 LinEq1:  Iter=  4 NonCon=     1 RMS=1.06D-08 Max=7.42D-07
 FoFJK:  IHMeth= 1 ICntrl=     0 DoSepK=T KAlg= 1 I1Cent= 0 FoldK=F
 LinEq1:  Iter=  5 NonCon=     1 RMS=7.30D-09 Max=3.77D-07
 FoFJK:  IHMeth= 1 ICntrl=     0 DoSepK=T KAlg= 1 I1Cent= 0 FoldK=F
 LinEq1:  Iter=  6 NonCon=     1 RMS=4.62D-09 Max=1.36D-07
 FoFJK:  IHMeth= 1 ICntrl=     0 DoSepK=T KAlg= 1 I1Cent= 0 FoldK=F
 LinEq1:  Iter=  7 NonCon=     1 RMS=1.84D-09 Max=5.52D-08
 FoFJK:  IHMeth= 1 ICntrl=     0 DoSepK=T KAlg= 1 I1Cent= 0 FoldK=F
 LinEq1:  Iter=  8 NonCon=     1 RMS=8.77D-10 Max=3.74D-08
 FoFJK:  IHMeth= 1 ICntrl=     0 DoSepK=T KAlg= 1 I1Cent= 0 FoldK=F
 LinEq1:  Iter=  9 NonCon=     1 RMS=4.90D-10 Max=3.03D-08
 FoFJK:  IHMeth= 1 ICntrl=     0 DoSepK=T KAlg= 1 I1Cent= 0 FoldK=F
 LinEq1:  Iter= 10 NonCon=     1 RMS=2.73D-10 Max=1.67D-08
 FoFJK:  IHMeth= 1 ICntrl=     0 DoSepK=T KAlg= 1 I1Cent= 0 FoldK=F
 LinEq1:  Iter= 11 NonCon=     1 RMS=1.45D-10 Max=7.84D-09
 FoFJK:  IHMeth= 1 ICntrl=     0 DoSepK=T KAlg= 1 I1Cent= 0 FoldK=F
 LinEq1:  Iter= 12 NonCon=     1 RMS=7.11D-11 Max=2.57D-09
 FoFJK:  IHMeth= 1 ICntrl=     0 DoSepK=T KAlg= 1 I1Cent= 0 FoldK=F
 LinEq1:  Iter= 13 NonCon=     0 RMS=3.37D-11 Max=1.12D-09
 Linear equations converged to 1.145D-10 1.145D-09 after    13 iterations.
 FoFJK:  IHMeth= 1 ICntrl=     0 DoSepK=T KAlg= 1 I1Cent= 0 FoldK=F
 SCF Done:  E(RCAM-B3LYP) =  -606.608813185     a.u. after    6 cycles
            Convg  =    0.3019D-08                    44 Fock formations.
              S**2 =  0.0000                  -V/T =  2.0042
 Calling FoFJK, ICntrl=      2127 FMM=F ISym2X=0 I1Cent= 0 IOpClX= 0 NMat=1 NMatS=1 NMatT=0.
 FoFJK:  IHMeth= 1 ICntrl=  2127 DoSepK=T KAlg= 1 I1Cent= 0 FoldK=F
 ***** Axes restored to original set *****
 -------------------------------------------------------------------
 Center     Atomic                   Forces (Hartrees/Bohr)
 Number     Number              X              Y              Z
 -------------------------------------------------------------------
      1        6           0.007735468   -0.005173689   -0.004277443
      2        6           0.004612027    0.001890104   -0.000263372
      3        6           0.000719203   -0.003379103    0.002167477
      4        6           0.002969230    0.002629583   -0.000830020
      5        6           0.004757815   -0.001388989    0.001208549
      6        6          -0.031821830    0.005847811   -0.000309082
      7        1          -0.003336604   -0.001022851    0.000222090
      8        1          -0.000226058   -0.000461240    0.000800210
      9        1          -0.000411557    0.000298663    0.000904060
     10        7          -0.002668868    0.009415784    0.000360162
     11        8           0.001190526   -0.006306740    0.010854870
     12        8           0.001513642   -0.004226683   -0.011482396
     13        7           0.001484490    0.002308571   -0.000511365
     14        1          -0.001531181    0.000256566    0.001106907
     15        1          -0.002450989    0.000242044   -0.001159366
     16        8           0.017680291    0.000133877    0.004838560
[...]
 .30951239,0.00478487,0.00111399,0.00110895,0.00541380,-0.00248720,0.00
 314985,-0.03990468,0.00544718,-0.00241440,0.00428701,0.00248583,-0.003
 77064,0.00708067,0.00169165,0.00067218,-0.00114622,0.00007564,0.000023
 46,0.00092753,-0.00004341,0.00022807,0.02791789,0.00105504,-0.00070472
 ,-0.00319136,-0.00031597,0.01258297,-0.00896107,0.00526068,-0.15457907
 ,0.13896335,0.00029563,-0.01149655,0.02440482,0.00167671,-0.00416374,-
 0.00134207,0.00006727,-0.00113622,-0.00076502,0.00008258,0.00068000,-0
 .00063950,-0.00705565,0.16122940,0.00117724,-0.00360981,-0.00344497,-0
 .00069064,0.01824925,-0.01843669,-0.00212013,0.13693621,-0.25544619,0.
 00022927,-0.00378730,0.00819695,0.00072075,-0.00181235,0.00101390,0.00
 000457,-0.00065552,-0.00002508,0.00000531,0.00092606,-0.00078212,0.002
 10754,-0.14957622,0.26607160,-0.00099170,-0.00015707,-0.00018279,0.006
 31114,0.00162518,0.00012011,0.00203860,0.00176461,0.00433858,-0.039849
 32,0.01744256,0.03306472,0.00470730,0.00033463,-0.00043053,0.00610242,
 0.00085719,0.00033061,-0.00019051,-0.00002304,-0.00000087,-0.00440495,
 -0.00078284,-0.00045643,0.02954433,-0.00008448,-0.00081743,0.00079059,
 0.00149163,-0.00486488,0.00105876,0.00389021,-0.00905245,-0.02992356,0
 .01788637,-0.10705307,-0.10346169,-0.00210463,0.01017319,0.01737519,0.
 00091123,-0.00198817,0.00241510,-0.00001752,0.00000852,-0.00006335,-0.
 00079839,0.00117245,0.00034240,-0.02060682,0.11058120,-0.00021975,0.00
 101326,-0.00017497,0.00029925,0.00010129,0.00215682,0.00003899,0.00016
 238,0.00207051,0.03319525,-0.10290861,-0.28789296,0.00386993,-0.014279
 48,-0.01990215,0.00013001,0.00350904,-0.00125760,-0.00001219,-0.000032
 12,-0.00001907,-0.00033556,-0.00030267,0.00065710,-0.03645444,0.112297
 50,0.30410493,-0.00341139,0.00424436,-0.00351904,-0.08432487,0.0066820
 7,0.00192320,-0.00456487,0.00744437,0.00274991,0.00799172,-0.00092585,
 0.00259489,-0.00178481,0.00271877,0.00028080,0.00614240,-0.00106435,-0
 .00165446,-0.00388345,-0.00080693,0.00035335,-0.00476800,-0.00076975,-
 0.00060270,0.00133827,0.00025798,0.00000885,0.26411360,0.00470477,-0.0
 4519223,0.01542203,0.00638711,-0.13027959,0.00229875,0.00712819,-0.039
 21925,-0.02664695,-0.00046811,0.01640210,-0.00920469,0.00128638,-0.019
 90093,0.00015352,-0.00223907,0.01116308,0.01653481,-0.00045864,0.00112
 363,-0.00259137,-0.00104492,0.00066480,0.00324316,0.00010225,0.0005175
 3,0.00044851,-0.05711753,0.68054613,-0.00437257,0.02121566,0.01508867,
 0.00252118,-0.00144557,-0.11265822,0.00323945,-0.03037557,0.00965054,0
 .00186525,-0.00365163,-0.00842271,0.00040987,-0.00189056,-0.00542724,-
 0.00017773,0.00532597,-0.00249985,-0.00020488,0.00125330,-0.00349385,-
 0.00012035,-0.00021362,-0.00306882,0.00033702,-0.00168870,0.00014491,-
 0.05205753,-0.03687453,0.96666014,0.00324901,0.00093508,0.00108009,0.0
 2002064,0.00694302,-0.00470806,0.00106617,0.00104114,0.00025188,-0.000
 54003,-0.00007017,-0.00042382,0.00032485,-0.00038887,-0.00030838,-0.00
 050305,0.00017458,0.00018295,0.00041101,0.00008882,-0.00004912,-0.0001
 0272,0.00064934,-0.00028351,-0.00006111,-0.00000054,0.00002298,-0.0856
 7058,0.01219924,-0.00260346,0.03403861,0.00140539,-0.00247807,-0.00741
 855,0.00602877,-0.04949663,0.04764724,-0.00009042,-0.00017862,0.003772
 63,0.00006472,-0.00248338,0.00256204,-0.00053576,0.00549353,0.00214326
 ,0.00069391,-0.00304584,-0.00322370,-0.00005669,0.00069926,-0.00008049
 ,0.00056649,-0.00413010,0.00012716,0.00002708,-0.00019635,-0.00018836,
 0.01188772,-0.28262625,0.19825260,-0.01717039,0.29735775,0.00023017,-0
 .00116750,0.00262818,-0.00307860,0.03584435,-0.00377954,0.00222800,-0.
 01039596,-0.00855620,-0.00067994,0.00418828,0.00028746,0.00036118,-0.0
 0445353,0.00034151,-0.00060180,0.00205239,0.00283648,0.00020191,-0.001
 63982,0.00112774,-0.00013244,-0.00092781,0.00329580,-0.00003084,0.0002
 2363,0.00001624,-0.00207677,0.19473615,-0.39837866,-0.00484562,-0.2509
 4549,0.53039301,0.00128586,-0.00030560,0.00083839,0.01883655,0.0104789
 7,0.01094501,0.00361987,0.00091414,-0.00111486,-0.00125563,0.00075974,
 -0.00023613,0.00030445,-0.00105687,0.00024338,-0.00052243,0.00022146,0
 .00078984,-0.00040042,0.00063318,-0.00004192,0.00046753,-0.00009773,-0
 .00005638,-0.00061050,0.00006994,-0.00002172,-0.09253451,0.03023150,0.
 05157880,0.02859801,-0.00322172,0.00865179,0.04235337,0.00076731,-0.00
 279391,-0.00194371,0.01161727,-0.03112107,-0.05337226,0.00042002,-0.00
 330799,0.00729647,0.00052515,-0.00448581,-0.00048369,-0.00019307,0.004
 42999,-0.00164098,0.00028673,0.00006456,-0.00428497,0.00071591,-0.0044
 8076,-0.00164715,0.00002176,0.00038508,-0.00013488,0.00004700,-0.00090
 729,-0.00008815,0.03042311,-0.21237598,-0.15576654,-0.00510188,0.04861
 794,0.02928995,-0.03980915,0.21120973,-0.00101930,0.01124780,-0.006076
 59,0.00895183,-0.03899978,-0.02208533,-0.00019978,0.00083610,0.0047555
 4,0.00019500,-0.00352696,0.00261417,-0.00046456,0.00570655,0.00009196,
 0.00078846,-0.00381121,-0.00272434,-0.00021100,-0.00059639,0.00324189,
 -0.00026224,0.00135080,0.00140534,0.00001268,-0.00034219,-0.00006260,0
 .05120405,-0.15330583,-0.45552361,0.01197590,0.00582348,-0.13059345,-0
 .07119919,0.18130756,0.60273051,0.00354836,0.00185623,0.00150132,-0.00
 031201,-0.00190855,0.00004622,0.00474518,0.00159189,0.00032956,0.00903
 897,0.00165253,0.00159950,-0.04950114,0.06296761,0.01151429,0.00912420
 ,0.00689050,0.00150007,-0.00054914,0.00019311,-0.00007160,-0.00004380,
 0.00003960,0.00000477,-0.00307968,-0.00095241,-0.00013555,-0.00059324,
 0.00142099,0.00016836,-0.00000497,-0.00038812,0.00028669,0.00009223,-0
 .00028568,-0.00044536,0.11820377,-0.00154100,0.01607525,-0.00177385,0.
 00301286,-0.02158125,0.00089282,-0.00112271,0.01195120,0.00192529,0.00
 519562,-0.04930144,0.01674881,0.03054586,-0.33317061,-0.01329003,0.009
 59577,-0.05112484,-0.01850481,-0.00011136,-0.00028470,0.00006362,0.000
 06211,-0.00042771,-0.00007258,-0.00079264,0.00196390,-0.00099076,-0.00
 281389,0.01849549,0.00208824,0.00048597,-0.00556557,0.00358889,0.00102
 612,-0.00453114,-0.00479439,-0.19841166,0.68256522,0.00021533,0.004878
 69,-0.00931076,-0.00032016,-0.00075931,0.00518917,0.00229563,-0.003208
 61,-0.00899142,-0.00496207,0.04474373,0.00875288,0.00937300,-0.0062596
 9,-0.13329650,0.00620356,-0.04573769,-0.00658787,0.00017140,-0.0012728
 3,0.00018689,-0.00026545,0.00125348,0.00030332,-0.00106700,0.00004717,
 0.00208134,-0.00035917,0.00071244,-0.00008379,0.00006623,-0.00050818,0
 .00062811,0.00001597,-0.00004433,0.00044689,-0.08427292,-0.02290401,0.
 84393144,0.00122514,-0.00135662,0.00020027,0.00003858,0.00141331,-0.00
 051227,-0.00062646,-0.00038543,0.00007509,-0.00102124,0.00035479,-0.00
 094756,-0.00408235,-0.00813028,-0.00043442,0.00258745,0.00205060,0.000
 60308,-0.00038413,-0.00009400,-0.00004664,0.00007891,0.00001126,0.0000
 0689,0.00029849,0.00037873,-0.00035363,0.00033674,-0.00114624,-0.00015
 833,-0.00010607,0.00033659,-0.00024466,-0.00008651,0.00023474,0.000288
 70,-0.06368853,0.08724538,0.14635201,0.06572048,-0.00001005,-0.0001778
 5,-0.00182647,-0.00005982,0.00074702,0.00033159,-0.00044116,-0.0007144
 7,-0.00011592,-0.00115274,0.00268420,-0.00178952,0.01312143,-0.0144185
 6,-0.03439421,0.00125588,-0.00539902,0.00320769,-0.00000791,-0.0003772
 8,0.00006611,0.00004194,0.00002671,0.00001435,0.00033859,-0.00012254,0
 .00139920,0.00017974,-0.00060838,-0.00006895,-0.00003701,0.00017766,-0
 .00005499,-0.00006209,0.00019794,0.00028252,0.07082353,-0.12115310,-0.
 12010971,-0.07406122,0.12740596,0.00038486,-0.00140169,0.00021083,-0.0
 0030431,0.00203652,0.00005970,-0.00042940,-0.00129441,-0.00064331,-0.0
 0113315,0.00328456,0.00109438,-0.00046452,-0.00449549,0.00289221,0.000
 25646,0.00385629,0.00116297,-0.00006301,0.00003515,0.00001538,0.000033
 37,0.00007947,0.00000916,0.00061228,-0.00028783,-0.00039527,0.00042977
 ,-0.00175037,-0.00015649,-0.00006972,0.00052792,-0.00041616,-0.0001251
 7,0.00038365,0.00041193,0.12515776,-0.12343441,-0.35034402,-0.13622573
 ,0.13837155,0.36095649,-0.00017307,-0.00120442,0.00013549,-0.00026610,
 0.00153610,0.00004375,0.00211433,-0.00077930,-0.00000321,0.00223982,0.
 00168819,-0.00051090,-0.00442900,-0.00693913,-0.00210534,-0.00033039,0
 .00313495,-0.00081663,0.00019895,0.00007078,0.00001417,-0.00020198,-0.
 00001959,-0.00000567,-0.00072537,-0.00009718,-0.00015865,-0.00000990,-
 0.00134179,-0.00017525,-0.00000464,0.00035601,-0.00023749,-0.00007247,
 0.00030820,0.00037402,-0.02417329,0.06908078,-0.07407705,-0.00045415,-
 0.00992462,0.01177009,0.02785405,-0.00023142,-0.00019552,0.00036183,-0
 .00006679,0.00052103,-0.00012425,0.00001271,-0.00027380,0.00161196,0.0
 0162353,-0.00459339,-0.00340359,0.00669309,-0.01766230,0.03343042,-0.0
 0040401,-0.00137412,0.00286627,0.00010363,0.00002216,-0.00000083,0.000
 01039,-0.00035522,-0.00011774,-0.00007476,0.00009225,0.00009794,0.0000
 1160,-0.00058619,0.00004167,0.00000517,0.00024725,-0.00025404,-0.00001
 420,0.00014076,0.00002768,0.05277812,-0.15273765,0.15558275,-0.0058459
 4,0.01052434,-0.01420518,-0.05383811,0.16423467,-0.00040688,0.00190765
 ,-0.00067425,0.00033340,-0.00209745,-0.00020863,-0.00012730,0.00142814
 ,0.00061677,-0.00000780,-0.00398124,0.00156366,-0.00096283,0.00519084,
 0.00812787,0.00113258,-0.00452398,0.00148587,-0.00000277,-0.00016298,0
 .00000880,0.00004658,-0.00010195,0.00001334,-0.00011325,-0.00008723,0.
 00012345,-0.00022575,0.00183617,0.00029555,0.00001611,-0.00043231,0.00
 026382,0.00011017,-0.00045606,-0.00061787,-0.05666400,0.16251632,-0.35
 571095,-0.00833415,0.01364900,-0.01474118,0.06514929,-0.17559711,0.362
 83509,0.00614541,0.00498639,-0.00566413,0.00680633,0.00102501,0.001485
 54,-0.00127245,0.00003784,-0.00032505,0.00349827,0.00119593,0.00119621
 ,0.00760087,-0.00216892,0.00489624,-0.04494888,0.01339455,0.00197109,-
 0.00376731,-0.00096278,-0.00007710,-0.00015980,-0.00005383,-0.00002740
 ,-0.00011242,-0.00018708,0.00019638,0.00173380,0.00069754,0.00002676,-
 0.00073838,-0.00003188,-0.00008422,-0.00002129,-0.00012602,-0.00017832
 ,-0.00283601,-0.00108619,0.00026882,0.00008015,0.00000343,0.00007641,-
 0.00133240,-0.00048912,0.00035551,0.07993192,0.00266299,-0.03310685,0.
 04119852,0.00128590,-0.00088549,-0.00194315,0.00078915,-0.00733484,0.0
 0049952,0.00077715,0.00339143,-0.00834873,0.00017582,-0.00046424,0.003
 15307,0.01606188,-0.19178145,0.07485829,-0.00087911,0.00251573,-0.0005
 3566,-0.00005029,0.00022807,-0.00008059,-0.00004183,0.00063042,-0.0005
 2374,-0.00009882,0.00078464,0.00288330,0.00018142,-0.00211919,0.000170
 07,0.00010758,-0.00055881,-0.00044471,0.00145992,0.00848477,-0.0053738
 0,-0.00088406,0.00097643,-0.00149090,-0.00159613,0.00103687,0.00050649
 ,-0.03546383,0.33611613,-0.00138470,0.01196352,0.00246288,0.00104375,0
 .00040313,-0.00763011,-0.00160714,0.01023178,0.00118011,0.00202656,-0.
 01369903,0.00297961,0.00012555,0.03933930,-0.06463802,-0.00322525,0.10
 908704,-0.21254958,-0.00020778,0.00048825,-0.00198606,-0.00005250,-0.0
 0010993,0.00033060,-0.00002479,0.00109977,-0.00162555,0.00140586,-0.00
 713258,-0.00389969,-0.00047070,0.00300061,0.00010198,-0.00061528,0.002
 65152,0.00310712,-0.00051431,-0.00439240,0.00213800,-0.00020149,0.0013
 0609,-0.00008494,0.00052189,0.00042610,-0.00260162,-0.03119528,-0.0404
 3949,0.56931566,-0.00068610,0.00012968,-0.00117077,0.00061744,0.000317
 23,-0.00003920,0.00030200,0.00031812,-0.00008281,0.00100022,-0.0001036
 0,0.00016984,0.00232946,0.00142218,-0.00064550,-0.00413965,-0.00246840
 ,-0.00018303,-0.00037211,0.00015584,-0.00030541,-0.00022293,-0.0000394
 1,-0.00000176,-0.00030232,-0.00002355,-0.00009454,-0.00013784,-0.00045
 296,-0.00036710,0.00002670,0.00018725,0.00005037,-0.00014579,0.0001728
 6,0.00023461,-0.00001329,-0.00041162,0.00034445,0.00012782,0.00003448,
 0.00008398,-0.00036320,-0.00019983,-0.00022108,-0.06440227,0.01136414,
 0.02148890,0.57774213,-0.00037175,-0.00105322,0.00567660,0.00010688,-0
 .00034891,0.00055326,0.00011189,-0.00070987,0.00045977,-0.00002666,0.0
 0111598,0.00031359,0.00089402,-0.00623113,0.00410175,-0.00419322,0.011
 46619,0.02495065,-0.00005246,-0.00129499,0.00233142,-0.00003027,0.0000
 2338,-0.00004417,-0.00006404,-0.00018269,0.00039254,-0.00032058,0.0013
 6373,0.00120268,0.00009544,-0.00048457,-0.00025059,0.00014131,-0.00061
 524,-0.00089384,0.00029049,0.00082318,-0.00110846,-0.00012053,0.000172
 19,-0.00020386,-0.00039075,0.00066066,0.00015206,0.01382137,-0.1166008
 4,-0.07468072,0.00098575,0.60188897,-0.00026195,-0.00075613,0.00433009
 ,0.00039654,-0.00252479,0.00002597,0.00025278,-0.00205089,0.00073854,0
 .00011584,0.00064673,-0.00194150,-0.00025291,0.00062177,0.00383364,0.0
 0325325,0.00121892,-0.05176156,0.00006801,-0.00028965,-0.00095465,-0.0
 0000344,0.00004253,-0.00015038,-0.00005573,0.00011033,0.00013083,-0.00
 063931,0.00306003,0.00246737,0.00021834,-0.00144817,-0.00017037,0.0003
 0558,-0.00132687,-0.00161913,-0.00006702,0.00194965,0.00078914,0.00001
 201,-0.00041038,0.00009057,0.00029373,-0.00148118,-0.00118287,0.016356
 63,-0.04047718,-0.20422674,0.01475199,-0.06243880,0.50098995,0.0002944
 8,0.00023992,0.00004543,0.00016588,-0.00007726,0.00002685,-0.00001578,
 -0.00001865,-0.00004025,-0.00002892,0.00007968,0.00001697,0.00030342,-
 0.00013987,0.00020665,0.00043856,0.00045731,0.00061660,-0.00043112,-0.
 00013502,-0.00014087,-0.00002594,-0.00000810,-0.00000850,-0.00003647,-
 0.00001449,0.00001100,0.00001936,0.00001410,0.00005609,-0.00001055,-0.
 00000054,-0.00001653,0.00002802,0.00000725,-0.00002894,-0.00007249,-0.
 00003108,-0.00001887,-0.00001402,-0.00000147,0.00000222,0.00011321,0.0
 0003334,0.00002284,0.00058441,-0.00380966,0.00482100,-0.05344456,0.016
 43124,-0.01355301,0.04869796,0.00018245,-0.00086446,-0.00017864,-0.000
 03759,0.00047162,-0.00006619,-0.00002792,0.00004451,0.00021354,0.00003
 906,-0.00029073,-0.00001609,0.00002284,0.00043846,-0.00066947,0.000332
 80,-0.00039065,-0.00279439,-0.00016319,0.00041912,0.00054186,-0.000010
 29,0.00002536,0.00003148,-0.00000515,0.00003225,-0.00003816,0.00001124
 ,0.00009073,-0.00026206,0.00000098,-0.00008069,0.00010949,0.00000449,-
 0.00007890,0.00013695,-0.00003785,0.00017498,0.00014232,-0.00000017,-0
 .00003469,0.00000682,0.00004873,-0.00005580,-0.00005381,-0.00097638,0.
 01442894,-0.01449635,0.01544025,-0.23083816,0.14024712,-0.01735244,0.2
 3947589,0.00015791,-0.00098809,0.00005827,-0.00003873,0.00041902,-0.00
 008191,-0.00003225,0.00016230,0.00008803,0.00009797,-0.00059671,-0.000
 17897,-0.00014454,0.00176741,-0.00114495,0.00089078,-0.00442275,-0.002
 44397,-0.00008229,0.00013449,0.00041620,-0.00000612,0.00000917,0.00002
 418,-0.00000130,0.00007580,-0.00012493,0.00006522,-0.00032305,-0.00023
 711,-0.00002111,0.00014643,0.00000067,-0.00002620,0.00011283,0.0001602
 3,-0.00003411,-0.00029194,0.00009788,0.00001881,-0.00002353,0.00002177
 ,0.00005326,0.00007489,-0.00017207,-0.00080683,0.02421734,-0.03648250,
 -0.01154722,0.12632156,-0.14201957,0.01103079,-0.14081390,0.17228166,0
 .00002765,-0.00120584,-0.00046082,-0.00014239,0.00050613,0.00008340,-0
 .00004634,0.00000440,0.00006037,-0.00003715,-0.00004878,0.00011012,-0.
 00026495,0.00006255,-0.00035450,0.00060053,-0.00027592,0.00041960,-0.0
 0017767,0.00061865,0.00010269,0.00000389,0.00002124,0.00004881,0.00002
 001,0.00001403,-0.00000359,0.00006065,-0.00011315,-0.00043108,-0.00000
 953,-0.00003598,0.00017373,0.00000460,0.00002991,0.00028269,0.00003402
 ,0.00015665,0.00012607,-0.00001986,0.00000125,0.00000107,0.00001076,0.
 00000925,0.00006097,0.01021459,0.00543077,-0.00127278,-0.19247454,-0.1
 2470594,-0.03532614,0.00323774,0.00290450,0.00144753,0.19854593,0.0003
 7217,-0.00001176,-0.00059154,-0.00034042,-0.00000294,0.00013918,-0.000
 05145,0.00015903,-0.00024464,-0.00000715,0.00001128,0.00014164,-0.0000
 9246,0.00044559,-0.00031914,0.00085462,-0.00042249,0.00211170,0.000739
 62,-0.00006005,0.00095834,0.00003797,-0.00000439,0.00002104,-0.0000059
 3,0.00000698,-0.00003746,0.00006800,-0.00020230,-0.00007685,-0.0000048
 7,0.00014752,-0.00003191,-0.00004563,0.00010793,0.00003840,0.00012220,
 -0.00029119,0.00001066,-0.00002824,0.00003932,-0.00001228,-0.00015317,
 0.00014522,0.00012032,-0.00542775,-0.00896885,-0.01399477,-0.12359385,
 -0.16236948,-0.02949865,-0.01877571,-0.01430746,-0.00438978,0.13617432
 ,0.17536196,-0.00008214,0.00064312,0.00081633,0.00047322,0.00053645,-0
 .00077842,-0.00011645,0.00069178,0.00043350,0.00026897,-0.00073538,0.0
 0035276,0.00071862,-0.00032304,-0.00162182,-0.00127424,-0.00479403,0.0
 0589065,-0.00113683,0.00059433,-0.00090614,-0.00008195,0.00000419,0.00
 001404,-0.00007530,0.00000008,-0.00002304,0.00002061,-0.00032933,-0.00
 026689,-0.00002615,0.00012081,-0.00000231,0.00001802,0.00008436,0.0001
 9447,0.00007627,0.00032784,-0.00004741,-0.00005102,0.00008681,-0.00006
 530,-0.00026902,0.00027896,0.00022436,-0.02211499,-0.02782506,-0.02542
 389,-0.03051465,-0.02489095,-0.05820027,0.01470493,0.01143095,0.006168
 45,0.03934430,0.04182575,0.07084323,-0.00023490,0.00100979,0.00046444,
 -0.00000695,-0.00057153,-0.00002406,-0.00002098,-0.00015595,-0.0000567
 8,-0.00001573,0.00014027,-0.00019185,-0.00019986,-0.00018523,0.0006255
 4,0.00056201,0.00126314,-0.00174734,0.00008984,-0.00066060,-0.00022849
 ,0.00001891,-0.00001648,-0.00005203,0.00000378,-0.00001303,0.00001700,
 -0.00005309,0.00021035,0.00046551,0.00001665,-0.00002241,-0.00015494,0
 .00005908,-0.00006142,-0.00029925,0.00008087,-0.00008497,-0.00008978,-
 0.00001046,-0.00004217,0.00000675,0.00000485,-0.00011667,-0.00016164,0
 .00299546,0.00252702,0.00933847,-0.26544117,0.09739781,0.01413481,0.00
 019680,-0.00037635,-0.00102156,-0.01958795,0.01015771,0.00011782,0.281
 54285,-0.00033971,0.00023795,-0.00050565,0.00030235,-0.00008212,0.0001
 8375,0.00003953,0.00013765,-0.00026202,-0.00002767,0.00004649,0.000092
 95,-0.00002276,0.00040241,-0.00017115,-0.00083465,-0.00043832,0.001655
 17,-0.00080107,-0.00046326,0.00076943,-0.00003453,-0.00002049,0.000000
 05,0.00001505,0.00000618,-0.00003214,-0.00001126,-0.00016076,0.0000511
 7,-0.00002646,0.00014436,-0.00008155,0.00002457,0.00010297,-0.00004254
 ,-0.00010245,-0.00036477,-0.00008463,0.00002734,0.00005409,-0.00000550
 ,0.00006045,0.00020878,0.00018715,0.01181173,-0.00677288,-0.01105183,0
 .09676543,-0.09678519,-0.00519438,0.02310144,-0.00866033,-0.00159150,-
 0.01954804,0.01021608,0.00227235,-0.11039929,0.10219115,-0.00027120,0.
 00077617,0.00085308,-0.00047316,0.00032104,-0.00084376,-0.00014670,0.0
 0065776,0.00041362,-0.00009505,-0.00075157,0.00030247,-0.00043121,-0.0
 0057256,-0.00163556,0.00182377,-0.00419694,0.00591544,0.00104805,0.000
 79571,-0.00075341,0.00007509,0.00002341,0.00001892,0.00007728,0.000018
 23,-0.00000799,0.00009825,-0.00028688,-0.00019024,-0.00000482,0.000121
 08,-0.00002428,-0.00006012,0.00006327,0.00014288,0.00002007,0.00034771
 ,-0.00017233,-0.00004697,0.00007877,-0.00007872,0.00000352,0.00038347,
 0.00035088,0.03364373,-0.02000359,-0.02046726,0.00804892,-0.00194449,-
 0.05116906,-0.01775439,0.00652854,0.00356863,-0.00441245,0.00383000,0.
 00239770,-0.02114261,0.01381087,0.06137898\\0.00000019,-0.00000030,0.0
 0000037,-0.00000007,0.00000027,0.00000013,0.,0.00000053,0.00000030,-0.
 00000017,0.00000002,0.00000015,0.00000017,0.00000001,-0.00000064,0.000
 00023,0.00000020,-0.00000013,-0.00000013,-0.00000024,0.00000039,0.,0.0
 0000042,0.00000038,-0.00000004,0.00000063,-0.00000018,-0.00000010,-0.0
 0000031,0.00000025,-0.00000004,0.00000093,0.00000074,0.00000004,-0.000
 00038,0.00000072,-0.00000001,0.00000030,-0.00000042,-0.00000008,0.0000
 0034,-0.00000055,-0.00000003,0.,-0.00000050,-0.00000035,0.00000002,-0.
 00000005,-0.00000001,-0.00000095,-0.00000079,0.00000027,-0.00000055,-0
 .00000015,0.00000006,-0.00000045,0.00000023,0.00000006,-0.00000048,-0.
 00000024\\\@


 SIC AS THE CAWSE OF EWERY THING IS, SIC WILBE THE EFFECT.
 -- PROVERBS AND REASONS OF THE YEAR 1585
           AS REPRINTED IN PAISLEY MAGAZINE 1828.
 Job cpu time:  0 days  9 hours 59 minutes 14.7 seconds.
 File lengths (MBytes):  RWF=    409 Int=      0 D2E=      0 Chk=     17 Scr=      1
 Normal termination of Gaussian 09 at Thu Oct 25 20:31:36 2018.
