 operating system is UNIX !
 hostname is         dlt11.abaxnet

 dscf (dlt11.abaxnet) : TURBOMOLE V6.6( 19103 ) 21 May 2014 at 15:45:05
 Copyright (C) 2014 TURBOMOLE GmbH, Karlsruhe


    2010-01-06 01:43:31.852 



                             d s c f - program

                   idea & directorship : reinhart ahlrichs
                   program development : marco haeser
                                         michael baer
                           dft version : oliver treutler


                          quantum chemistry group
                          universitaet  karlsruhe
                                  germany




                          References             
                                                 
          TURBOMOLE:                             
              R. Ahlrichs, M. Baer, M. Haeser, H. Horn, and
              C. Koelmel
              Electronic structure calculations on workstation
              computers: the program system TURBOMOLE
              Chem. Phys. Lett. 162: 165 (1989)
          Density Functional:                              
              O. Treutler and R. Ahlrichs                      
              Efficient Molecular Numerical Integration Schemes
              J. Chem. Phys. 102: 346 (1995)                   
          Parallel Version:                                
              Performance of parallel TURBOMOLE for Density    
              Functional Calculations                          
              M. v. Arnim and R. Ahlrichs                      
              J. Comp. Chem. 19: 1746 (1998)                   
                                         




              +--------------------------------------------------+
              | Atomic coordinate, charge and isotop information |
              +--------------------------------------------------+

                    atomic coordinates            atom    charge  isotop
          0.77150640   -2.10266788    0.01111342    c      6.000     0
          3.09906504   -0.93982299    0.01612928    c      6.000     0
          3.30916870    1.66798250    0.02260704    c      6.000     0
          1.14711720    3.08461246    0.02109467    c      6.000     0
         -1.26370137    1.97216500    0.01465006    c      6.000     0
         -1.43569334   -0.70115395    0.01202461    c      6.000     0
          0.71724188   -4.13639065    0.00779941    h      1.000     0
          5.15392041    2.53799421    0.02624321    h      1.000     0
          1.27158509    5.12613071    0.02718688    h      1.000     0
          5.37268520   -2.48962489    0.01380581    n      7.000     0
          7.39760406   -1.40592372    0.01919192    o      8.000     0
          5.12344328   -4.77161336    0.00646430    o      8.000     0
         -3.29778145    3.52741424    0.05360818    n      7.000     0
         -3.02397650    5.39369751   -0.13868321    h      1.000     0
         -5.06022888    2.88699365   -0.20960185    h      1.000     0
         -3.97398834   -2.01266334    0.02524511    c      6.000     0
         -5.79655487   -1.12628773   -2.70896431    cl    17.000     0
         -5.74858884   -1.15930232    2.78653992    cl    17.000     0
         -3.76282367   -5.35153947   -0.00645444    cl    17.000     0
 
       center of nuclear mass  :   -1.15234036   -1.29761026    0.01981528
       center of nuclear charge:   -1.06690119   -1.20599872    0.01825263

   *************************************************************************
   ADC(2) - opt by CAM-B3LYP gaussian                                       
   *************************************************************************



              +--------------------------------------------------+
              |               basis set information              |
              +--------------------------------------------------+

              we will work with the 1s 3p 5d 7f 9g ... basis set
              ...i.e. with spherical basis functions...

   type   atoms  prim   cont   basis
   ---------------------------------------------------------------------------
    c        7     52     37   def2-TZVPD   [6s3p3d1f|12s6p3d1f]
    h        5     11      9   def2-TZVPD   [3s2p|5s2p]
    n        2     52     37   def2-TZVPD   [6s3p3d1f|12s6p3d1f]
    o        2     55     40   def2-TZVPD   [6s4p3d1f|12s7p3d1f]
    cl       3     72     46   def2-TZVPD   [6s6p3d1f|15s10p4d1f]
   ---------------------------------------------------------------------------
   total:   19    849    596
   ---------------------------------------------------------------------------

   total number of primitive shells          :  104
   total number of contracted shells         :  218
   total number of cartesian basis functions :  680
   total number of SCF-basis functions       :  596


 integral neglect threshold       :  0.49E-11
 integral storage threshold THIZE :  0.10E-04
 integral storage threshold THIME :         5


 DENSITY CONVERGENCE CHECK SWITCHED ON !
 SCF CONVERGENCE IF RMS(delta[D]) <     0.1000000000E-07


 symmetry group of the molecule :   c1 

 the group has the following generators :
   c1(z)

    1 symmetry operations found

 there are 1 real representations :   a   

 maximum number of shells which are related by symmetry :  1


    mo occupation :
   irrep   mo's   occupied
    a      596       64
 
 number of basis functions   :          596
 number of occupied orbitals :           64
 

          ------------------------
          nuclear repulsion energy  :   1243.89762833    
          ------------------------

 
          -----------------
          -S,T+V- integrals
          -----------------

 1e-integrals will be neglected if expon. factor < 0.491465E-12
 
   Difference densities algorithm switched on.
   The maximal number of linear combinations of
   difference densities is          20 .

 automatic virtual orbital shift switched on 
      shift if e(lumo)-e(homo) < 0.10000000    


 DIIS switched on: error vector is FDS-SDF
 Max. Iterations for DIIS is     :   5
 DIIS matrix (see manual) 
    Scaling factor of diagonals  :  1.200
    threshold for scaling factor :  0.000

 scf convergence criterion : increment of total energy < .1000000D-06
                  and increment of one-electron energy < .1000000D-03


 <geterg> : there is no data group $energy 

  MOs are in ASCII format !


 reading orbital data $scfmo  from file mos . 

 orbital characterization : expanded
 
 mo provided and orthogonalized by Cholesky decomposition

 DSCF restart information will be dumped onto file mos

 
                                              current damping :  0.300
 ITERATION  ENERGY          1e-ENERGY        2e-ENERGY     RMS[dD(SAO)]   TOL
   1  -1902.5952188797    -5076.9022055     1930.4093583    0.000D+00 0.490D-11
          max. resid. norm for Fia-block=  4.052D-01 for orbital     41a         
          max. resid. fock norm         =  9.300D+00 for orbital    429a         
          Delta Eig. =   935.4204990138 eV 
 
                                              current damping :  0.250
 ITERATION  ENERGY          1e-ENERGY        2e-ENERGY     RMS[dD(SAO)]   TOL
   2  -1904.9454675245    -5098.1101909     1949.2670950    0.716D-01 0.476D-11
          Norm of current diis error:  2.7145    
          max. resid. norm for Fia-block=  1.496D-01 for orbital     27a         
          max. resid. fock norm         =  3.406D-01 for orbital    491a         
          Delta Eig. =   212.5749940288 eV 
 
                                              current damping :  0.200
 ITERATION  ENERGY          1e-ENERGY        2e-ENERGY     RMS[dD(SAO)]   TOL
   3  -1905.1444214678    -5097.4960222     1948.4539724    0.196D-01 0.365D-11
          Norm of current diis error:  1.1083    
          max. resid. norm for Fia-block=  4.867D-02 for orbital     44a         
          max. resid. fock norm         =  5.910D-02 for orbital     44a         
          Delta Eig. =    47.6891854025 eV 
 
                                              current damping :  0.250
 ITERATION  ENERGY          1e-ENERGY        2e-ENERGY     RMS[dD(SAO)]   TOL
   4  -1905.1950540069    -5098.6054005     1949.5127182    0.495D-02 0.257D-11
          Norm of current diis error: 0.31002    
          max. resid. norm for Fia-block=  1.727D-02 for orbital     64a         
          max. resid. fock norm         =  1.839D-02 for orbital     27a         
          Delta Eig. =     6.6259683011 eV 
 
                                              current damping :  0.100
 ITERATION  ENERGY          1e-ENERGY        2e-ENERGY     RMS[dD(SAO)]   TOL
   5  -1905.2006720121    -5098.6939397     1949.5956393    0.180D-02 0.232D-11
          Norm of current diis error: 0.10775    
          max. resid. norm for Fia-block=  8.627D-03 for orbital     64a         
          max. resid. fock norm         =  9.322D-03 for orbital     64a         
 mo-orthogonalization: Cholesky decomposition
          Delta Eig. =     1.5514671747 eV 
 
                                              current damping :  0.150
 ITERATION  ENERGY          1e-ENERGY        2e-ENERGY     RMS[dD(SAO)]   TOL
   6  -1905.2018161690    -5098.6816549     1949.5822104    0.801D-03 0.212D-11
          Norm of current diis error: 0.45151E-01
          max. resid. norm for Fia-block=  3.732D-03 for orbital     64a         
          max. resid. fock norm         =  3.884D-03 for orbital     64a         
          Delta Eig. =     0.1839566781 eV 
 
                                              current damping :  0.200
 ITERATION  ENERGY          1e-ENERGY        2e-ENERGY     RMS[dD(SAO)]   TOL
   7  -1905.2020269484    -5098.6895342     1949.5898789    0.328D-03 0.199D-11
          Norm of current diis error: 0.20924E-01
          max. resid. norm for Fia-block=  1.930D-03 for orbital     64a         
          max. resid. fock norm         =  2.184D-03 for orbital    595a         
          Delta Eig. =     0.0517918022 eV 
 
                                              current damping :  0.250
 ITERATION  ENERGY          1e-ENERGY        2e-ENERGY     RMS[dD(SAO)]   TOL
   8  -1905.2020706299    -5098.6858422     1949.5861432    0.169D-03 0.188D-11
          Norm of current diis error: 0.90715E-02
          max. resid. norm for Fia-block=  9.502D-04 for orbital     63a         
          max. resid. fock norm         =  1.229D-03 for orbital    595a         
          Delta Eig. =     0.0172552338 eV 
 
                                              current damping :  0.300
 ITERATION  ENERGY          1e-ENERGY        2e-ENERGY     RMS[dD(SAO)]   TOL
   9  -1905.2020797753    -5098.6878837     1949.5881756    0.625D-04 0.180D-11
          Norm of current diis error: 0.43572E-02
          max. resid. norm for Fia-block=  4.597D-04 for orbital     63a         
          max. resid. fock norm         =  5.573D-04 for orbital    596a         
          Delta Eig. =     0.0144327393 eV 
 
                                              current damping :  0.150
 ITERATION  ENERGY          1e-ENERGY        2e-ENERGY     RMS[dD(SAO)]   TOL
  10  -1905.2020818518    -5098.6885080     1949.5887978    0.316D-04 0.173D-11
          Norm of current diis error: 0.22700E-02
          max. resid. norm for Fia-block=  2.864D-04 for orbital     63a         
          max. resid. fock norm         =  2.873D-04 for orbital     63a         
 mo-orthogonalization: Cholesky decomposition
          Delta Eig. =     0.0046998651 eV 
 
                                              current damping :  0.200
 ITERATION  ENERGY          1e-ENERGY        2e-ENERGY     RMS[dD(SAO)]   TOL
  11  -1905.2020825452    -5098.6883621     1949.5886512    0.196D-04 0.165D-11
          Norm of current diis error: 0.11250E-02
          max. resid. norm for Fia-block=  1.436D-04 for orbital     63a         
          max. resid. fock norm         =  1.442D-04 for orbital     63a         
          Delta Eig. =     0.0042214716 eV 
 
                                              current damping :  0.250
 ITERATION  ENERGY          1e-ENERGY        2e-ENERGY     RMS[dD(SAO)]   TOL
  12  -1905.2020827142    -5098.6892008     1949.5894898    0.695D-05 0.159D-11
          Norm of current diis error: 0.59728E-03
          max. resid. norm for Fia-block=  8.333D-05 for orbital     63a         
          max. resid. fock norm         =  8.490D-05 for orbital     63a         
          Delta Eig. =     0.0016625703 eV 
 
                                              current damping :  0.300
 ITERATION  ENERGY          1e-ENERGY        2e-ENERGY     RMS[dD(SAO)]   TOL
  13  -1905.2020827633    -5098.6887588     1949.5890477    0.439D-05 0.153D-11
          Norm of current diis error: 0.29723E-03
          max. resid. norm for Fia-block=  4.760D-05 for orbital     64a         
          max. resid. fock norm         =  4.822D-05 for orbital     64a         
          Delta Eig. =     0.0005976649 eV 
 
                                              current damping :  0.350
 ITERATION  ENERGY          1e-ENERGY        2e-ENERGY     RMS[dD(SAO)]   TOL
  14  -1905.2020827759    -5098.6890100     1949.5892989    0.184D-05 0.149D-11
          Norm of current diis error: 0.13416E-03
          max. resid. norm for Fia-block=  2.188D-05 for orbital     64a         
          max. resid. fock norm         =  2.231D-05 for orbital     64a         
          Delta Eig. =     0.0003578141 eV 
 
                                              current damping :  0.400
 ITERATION  ENERGY          1e-ENERGY        2e-ENERGY     RMS[dD(SAO)]   TOL
  15  -1905.2020827780    -5098.6889431     1949.5892320    0.994D-06 0.144D-11
          Norm of current diis error: 0.58717E-04
          max. resid. norm for Fia-block=  1.055D-05 for orbital     64a         
          max. resid. fock norm         =  1.588D-05 for orbital    271a         
 mo-orthogonalization: Cholesky decomposition
          Delta Eig. =     0.0001411183 eV 
 
                                              current damping :  0.450
 ITERATION  ENERGY          1e-ENERGY        2e-ENERGY     RMS[dD(SAO)]   TOL
  16  -1905.2020827776    -5098.6889518     1949.5892407    0.840D-06 0.140D-11
          Norm of current diis error: 0.27933E-04
          max. resid. norm for Fia-block=  4.309D-06 for orbital     64a         
          max. resid. fock norm         =  1.917D-05 for orbital    271a         
          Delta Eig. =     0.0000704236 eV 

 ENERGY & DENSITY CONVERGED !

 
                                              current damping :  0.500
 ITERATION  ENERGY          1e-ENERGY        2e-ENERGY     RMS[dD(SAO)]   TOL
  17  -1905.2020827759    -5098.6889503     1949.5892392    0.837D-06 0.140D-11
          max. resid. norm for Fia-block=  1.150D-06 for orbital     64a         
          max. resid. fock norm         =  9.403D-06 for orbital    271a         

 convergence criteria satisfied after 17 iterations


   *************************************************************************
   ADC(2) - opt by CAM-B3LYP gaussian                                       
   *************************************************************************


                  ------------------------------------------ 
                 |  total energy      =  -1905.20208277587  |
                  ------------------------------------------ 
                 :  kinetic energy    =   1904.71729512888  :
                 :  potential energy  =  -3809.91937790474  :
                 :  virial theorem    =      1.99974554529  :
                 :  wavefunction norm =      1.00000000000  :
                  .......................................... 


 <geterg> : there is no data group $energy 


 <skperg> : $end is missing 


 orbitals $scfmo  will be written to file mos

    irrep                 60a         61a         62a         63a         64a   
 eigenvalues H         -0.46685    -0.45712    -0.45359    -0.38590    -0.33585
            eV         -12.7037    -12.4391    -12.3430    -10.5011     -9.1389
 occupation              2.0000      2.0000      2.0000      2.0000      2.0000 

    irrep                 65a         66a         67a         68a         69a   
 eigenvalues H          0.04213     0.04576     0.05754     0.05982     0.06243
            eV           1.1464      1.2451      1.5658      1.6278      1.6989
 
 
 
 
 ==============================================================================
                           electrostatic moments
 ==============================================================================
 
              nuc           elec       ->  total
 ------------------------------------------------------------------------------
                          charge      
 ------------------------------------------------------------------------------
         128.000000    -128.000000      -0.000000
 
 ------------------------------------------------------------------------------
                       dipole moment  
 ------------------------------------------------------------------------------
   x    -136.563353     134.992063      -1.571289
   y    -154.367837     156.326817       1.958981
   z       2.336337      -2.454860      -0.118523
 
   | dipole moment | =     2.5141 a.u. =     6.3902 debye 
 
 ------------------------------------------------------------------------------
                     quadrupole moment
 ------------------------------------------------------------------------------
  xx    2614.613741   -2701.831102     -87.217360
  yy    1103.175809   -1174.958976     -71.783168
  zz     256.860083    -333.497191     -76.637108
  xy     164.695228    -161.088498       3.606731
  xz      -2.492641       3.059631       0.566990
  yz      -2.817619       2.265832      -0.551787
 
     1/3  trace=     -78.545879
     anisotropy=      15.091777
 
 ==============================================================================
 


    ------------------------------------------------------------------------
         total  cpu-time :  1 hours  2 minutes and 41 seconds
         total wall-time :  1 hours  2 minutes and 45 seconds
    ------------------------------------------------------------------------


   ****  dscf : all done  ****


    2010-01-06 02:46:16.470 

