 hostname is         dlt12.abaxnet
 this is node-proc. number 0 running on node dlt12.abaxnet
 the total number of node-proc. spawned is   1

 ricc2 (dlt12.abaxnet) : TURBOMOLE V6.6( 19125 ) 27 May 2014 at 14:24:19
 Copyright (C) 2014 TURBOMOLE GmbH, Karlsruhe


    2023-01-23 09:55:14.952 



                              R I C C 2 - PROGRAM

                          the quantum chemistry groups
                             at the universities in
                           Karlsruhe, Bochum & Mainz
                                   Germany



   *-----------------------------------------------------------------------*
   |                     program will use  1 thread(s)                     |
   *-----------------------------------------------------------------------*


              +--------------------------------------------------+
              | Atomic coordinate, charge and isotop information |
              +--------------------------------------------------+

                    atomic coordinates            atom    charge  isotop
          2.63576462   -1.39512226    0.21590179    c      6.000     0
          5.12565600   -0.60898833    0.15384664    c      6.000     0
          5.73574293    1.91955581   -0.10916325    c      6.000     0
          3.81804685    3.65491230   -0.32375399    c      6.000     0
          1.28052489    2.91050318   -0.27360755    c      6.000     0
          0.68380616    0.33040404    0.01966914    c      6.000     0
          2.23030500   -3.38212673    0.44236873    h      1.000     0
          7.69397056    2.48801737   -0.14834906    h      1.000     0
          4.26554959    5.63896919   -0.54460726    h      1.000     0
          7.13626680   -2.47265542    0.37392940    n      7.000     0
          9.30681283   -1.71938980    0.33629793    o      8.000     0
          6.54117550   -4.68222496    0.58055797    o      8.000     0
         -0.57648506    4.70346479   -0.48050180    n      7.000     0
         -0.08876228    6.40732675   -1.16071847    h      1.000     0
         -2.34247419    4.13252997   -0.88600502    h      1.000     0
         -1.97355198   -0.57054909    0.07523031    c      6.000     0
         -2.77877146   -2.42382524   -1.60875712    c      6.000     0
         -3.69529495    0.35967000    1.83616813    c      6.000     0
         -5.23403805   -3.32339794   -1.53719485    c      6.000     0
         -1.46410161   -3.15870959   -2.99271466    h      1.000     0
         -6.15073486   -0.54018782    1.90841185    c      6.000     0
         -3.09242229    1.77421015    3.18496266    h      1.000     0
         -6.92888056   -2.38233473    0.21995698    c      6.000     0
         -5.82452008   -4.76359320   -2.86308024    h      1.000     0
         -7.45609879    0.18948729    3.30309471    h      1.000     0
         -8.84748557   -3.08594574    0.27805704    h      1.000     0
 
       center of nuclear mass  :    1.12278785   -0.41890965    0.08731585
       center of nuclear charge:    1.00791033   -0.37297542    0.07734016

              +--------------------------------------------------+
              |               basis set information              |
              +--------------------------------------------------+

              we will work with the 1s 3p 5d 7f 9g ... basis set
              ...i.e. with spherical basis functions...

   type   atoms  prim   cont   basis
   ---------------------------------------------------------------------------
    c       12     52     37   def2-TZVPD   [6s3p3d1f|12s6p3d1f]
    h       10     11      9   def2-TZVPD   [3s2p|5s2p]
    n        2     52     37   def2-TZVPD   [6s3p3d1f|12s6p3d1f]
    o        2     55     40   def2-TZVPD   [6s4p3d1f|12s7p3d1f]
   ---------------------------------------------------------------------------
   total:   26    948    688
   ---------------------------------------------------------------------------

   total number of primitive shells          :   74
   total number of contracted shells         :  260
   total number of cartesian basis functions :  784
   total number of SCF-basis functions       :  688



   =========================================================================


     restricted closed shell calculation for the wavefunction models:
               ADC(2)     - Algebraic Diagrammatic Construction to 2. Order (strict)


     global parameters for ricc2 program:

        hard restart (reuse of interm.) :  disabled
        soft restart (reuse of vectors) :  disabled
        threshold for vector function   :    0.100000E-06
        convergence threshold energy    :    0.100000E-07
        linear dependence threshold     :    0.100000E-13
        global print level              :      1
        maximum number of iterations    :   500
        maximum number DIIS vectors     :    10
        max. dim. of reduced space      :   100
        core memory limit (MB)          :   500
        disk space limit (MB)           :   none


   =========================================================================
     "cartesian on" in $drvopt is ignored by $ricc2

    der. integral neglect threshold  :  0.10E-08
    integral neglect threshold       :  0.43E-12
    integral storage threshold THIZE :  0.10E-04
    integral storage threshold THIME :         5


                  +------------------------------------------+
                  |     Auxiliary basis set information      |
                  +------------------------------------------+

              we will work with the 1s 3p 5d 7f 9g ... basis set
              ...i.e. with spherical basis functions...

   type   atoms  prim   cont   basis
   ---------------------------------------------------------------------------
    c       12     97     92   def2-TZVPD   [9s7p5d4f1g|9s7p6d4f1g]
    h       10     32     24   def2-TZVPD   [5s3p2d|5s4p3d]
    n        2     97     92   def2-TZVPD   [9s7p5d4f1g|9s7p6d4f1g]
    o        2     97     92   def2-TZVPD   [9s7p5d4f1g|9s7p6d4f1g]
   ---------------------------------------------------------------------------
   total:   26   1872   1712
   ---------------------------------------------------------------------------

   total number of primitive shells          :   93
   total number of contracted shells         :  516
   total number of cartesian basis functions : 2100
   total number of SCF-basis functions       : 1712


 symmetry group of the molecule :   c1 

 the group has the following generators :
   c1(z)

    1 symmetry operations found

 there are 1 real representations :   a   

 maximum number of shells which are related by symmetry :  1


 The symmetry information takes   1 MB

*---------------------------------------------------------------------*
|               simplified C1 algorithm will be applied               |
*---------------------------------------------------------------------*
  MOs are in ASCII format !


 reading orbital data $scfmo  from file mos . 

 orbital characterization : scfconv=7
 

         --------------------------------------------------------------
                   checking mo's by calculating trace(D*S)

              number of electrons : 
                 from trace(D*S)         :  111.999999999998
                 from occupation numbers :  112.000000000000

              molecular charge           :    0.000000000000
         --------------------------------------------------------------

 time elapsed for calculating density matrices :   0.036 sec
 all orbitals will be active in the correlation treatment


   Molecular Orbital Statistic:
   ============================

   -----------------------------
   orbitals in total:
   -----------------------------
    frozen occupied :      0
    active occupied :     56
    active virtual  :    632
    frozen virtual  :      0
    all together    :    688
   -----------------------------


     time in riccmos       cpu:  0.38 sec    wall:  0.68 sec    ratio:  0.6

     total memory allocated for calculation of (Q|P)**(-1/2) : 34 MiB


     calculation of (P|Q) ...
     time in lp2sym        cpu:  0.10 sec    wall:  0.10 sec    ratio:  1.0


     calculation of the Cholesky decomposition of (P|Q)**(-1) ...
     time in invmetri      cpu:  0.36 sec    wall:  0.56 sec    ratio:  0.6

   threshold for RMS(d[D]) in SCF was     :  0.10E-07
   integral neglect threshold             :  0.43E-12
   derivative integral neglect threshold  :  0.10E-08


 setting up bound for integral derivative estimation

 increment for numerical differentiation : 0.00050000

   =========================================================================

     Energy of reference wave function is  -719.0267631778000
     Maximum orbital residual is           0.3840887675418E-04


     Number of symmetry-nonredundant auxiliary basis functions:     1712

     Block lengths for integral files:
        frozen occupied (BOI):        0 MiB
        active occupied (BJI):        1 MiB
        active virtual  (BAI):        9 MiB
        frozen virtual  (BGI):        0 MiB
               general  (BTI):        9 MiB

   =========================================================================




   **************************************************************************
   *                                                                        *
   *          OPTIMIZATION OF THE GROUND STATE CLUSTER AMPLITUDES           *
   *                                                                        *
   **************************************************************************


   Iter.   MP2 energy       Norm(Omega)    Norm(t1)  Norm(t2)     cpu    wall
   ...........................................................................
    1   -722.0794857794    0.1896045759     0.00000   0.56475    4.62    5.11
   ...........................................................................


     time in total         cpu:  4 min 37 s  wall:  5 min  7 s  ratio:  0.9


     **********************************************************************
     *                                                                    *
     *   RHF  energy                             :   -719.0267631778      *
     *   MP2 correlation energy                  :     -3.0527226016      *
     *                                                                    *
     *   Final MP2 energy                        :   -722.0794857794      *
     *                                                                    *
     *   Norm of MP1 T2 amplitudes               :      0.5647492028      *
     *                                                                    *
     *   D1 diagnostic                           :      0.0574            *
     *                                                                    *
     **********************************************************************



 **************************************************************
 *                                                            *
 *    OPTIMIZATION OF THE EXCITED STATE CLUSTER AMPLITUDES    *
 *                                                            *
 **************************************************************


  preoptimize excitation energies/vectors using CCS:

  ==================================================


 ======== LINEAR CC RESPONSE SOLVER ========

    threshold for convergence: 0.10E-02
    maximum number of simultaneous jacoby matrix transformations: 15
                                                
     summary of start vectors generation:
     -------------------------------------------
     type of solution vectors      : RE0
     symmetry                      : a  
     number of vectors requested   :    15
     number of vectors generated   :    15
       -- guessed as rhs/(e_a-e_i) :    15
     -------------------------------------------
                                                

    Iter  #Vectors  time (min)    max. residual 
    --------------------------------------------
      1      15         8.79     0.14E+00  (  1)
      2      15         8.76     0.57E-01  (  1)
      3      15         8.75     0.47E-01  (  4)
      4      15         8.81     0.48E-01  ( 11)
      5      15         9.05     0.33E-01  ( 15)
  dimension of red. space became too large.
  try internal restart...
      6      15         8.80     0.10E+00  (  6)
                                                
     summary of start vectors generation:
     -------------------------------------------
     type of solution vectors      : RE0
     symmetry                      : a  
     number of vectors requested   :    15
     number of vectors generated   :    15
       -- restarted from file      :    15
     -------------------------------------------
                                                

    Iter  #Vectors  time (min)    max. residual 
    --------------------------------------------
      7      15         8.81     0.10E+00  (  6)
      8      15         9.11     0.77E-01  (  4)
      9      14         9.29     0.83E-01  (  4)
     10      14         8.17     0.36E-01  ( 14)
     11      13         7.96     0.22E-01  ( 14)
     12       8         4.85     0.12E-01  ( 14)
     13       8         5.47     0.52E-02  ( 14)
     14       2         1.28     0.27E-02  ( 14)
     15       1         0.78     0.12E-02  ( 14)
     16       1         0.78     0.70E-03  ( 15)
    --------------------------------------------
    converged in 16 iterations

         Total time        109.47 minutes


 ===========================================




 Note that this is the intermediate result of a preoptimization!
 The convergence threshold was  0.1E-02 only!


 +==================================================================+
 | sym | multi | state |          CCS excitation energies           |
 |     |       |       +--------------------------------------------+
 |     |       |       |   Hartree    |     eV       |     cm-1     |
 +==================================================================+
 | a   |   1   |   1   |    0.1938201 |      5.27411 |    42538.584 |
 | a   |   1   |   2   |    0.1951582 |      5.31052 |    42832.270 |
 | a   |   1   |   3   |    0.2020024 |      5.49676 |    44334.393 |
 | a   |   1   |   4   |    0.2056044 |      5.59478 |    45124.948 |
 | a   |   1   |   5   |    0.2192000 |      5.96474 |    48108.849 |
 | a   |   1   |   6   |    0.2218500 |      6.03684 |    48690.438 |
 | a   |   1   |   7   |    0.2277840 |      6.19832 |    49992.816 |
 | a   |   1   |   8   |    0.2480853 |      6.75074 |    54448.431 |
 | a   |   1   |   9   |    0.2500024 |      6.80291 |    54869.186 |
 | a   |   1   |  10   |    0.2545138 |      6.92567 |    55859.318 |
 | a   |   1   |  11   |    0.2570009 |      6.99335 |    56405.173 |
 | a   |   1   |  12   |    0.2619005 |      7.12668 |    57480.522 |
 | a   |   1   |  13   |    0.2665587 |      7.25343 |    58502.869 |
 | a   |   1   |  14   |    0.2683459 |      7.30206 |    58895.114 |
 | a   |   1   |  15   |    0.2736852 |      7.44735 |    60066.959 |
 +==================================================================+




  preoptimize ADC(2) excitation energies/vectors using a quasi linear algorithm:
  ==============================================================================


 ======== LINEAR CC RESPONSE SOLVER ========

    threshold for convergence: 0.10E-02
    maximum number of simultaneous jacoby matrix transformations: 15
                                                
     summary of start vectors generation:
     -------------------------------------------
     type of solution vectors      : RE0
     symmetry                      : a  
     number of vectors requested   :    15
     number of vectors generated   :    15
       -- restarted from file      :    15
     -------------------------------------------
                                                

    Iter  #Vectors  time (min)    max. residual 
    --------------------------------------------
 threshold for this macro iteration:  4.911460354998420E-002
      1      15       110.41     0.94E-01  (  1)
 ...adapted threshold to:  6.055639089639900E-002
      2       8        64.47     0.47E-01  ( 12)
                                                
     summary of start vectors generation:
     -------------------------------------------
     type of solution vectors      : RE0
     symmetry                      : a  
     number of vectors requested   :    15
     number of vectors generated   :    15
       -- restarted from file      :    15
     -------------------------------------------
                                                

    Iter  #Vectors  time (min)    max. residual 
    --------------------------------------------
 threshold for this macro iteration:  6.430748920418949E-003
      3      15       119.12     0.49E-01  ( 12)
 ...adapted threshold to:  6.868466010493790E-003
      4      15       142.57     0.44E-01  ( 14)
 ...adapted threshold to:  1.345144681338706E-002
      5      15       123.30     0.60E-01  ( 15)
 ...adapted threshold to:  1.723484723617336E-002
      6       8        62.28     0.32E-01  ( 14)
 ...adapted threshold to:  1.993849529239342E-002
      7       5        35.80     0.22E-01  ( 14)
 ...adapted threshold to:  2.097865022662906E-002
      8       1         8.33     0.29E-01  ( 15)
 ...adapted threshold to:  2.141457256513069E-002
      9       1         8.25     0.25E-01  ( 15)
 ...adapted threshold to:  2.175572696110015E-002
     10       1         8.53     0.23E-01  ( 15)
 ...adapted threshold to:  2.200260945087684E-002
     11       1         8.23     0.19E-01  ( 15)
                                                
     summary of start vectors generation:
     -------------------------------------------
     type of solution vectors      : RE0
     symmetry                      : a  
     number of vectors requested   :    15
     number of vectors generated   :    15
       -- restarted from file      :    15
     -------------------------------------------
                                                

    Iter  #Vectors  time (min)    max. residual 
    --------------------------------------------
 threshold for this macro iteration:  1.436889135813746E-003
     12      15       118.24     0.19E-01  ( 15)
     13       8        63.61     0.13E-01  ( 15)
     14       7        49.34     0.95E-02  ( 15)
     15       6        41.84     0.14E-01  ( 15)
 ...adapted threshold to:  2.386455217576938E-003
     16       5        35.27     0.27E-01  ( 15)
 ...adapted threshold to:  3.771326614841419E-003
     17       2        15.38     0.17E-01  ( 15)
 ...adapted threshold to:  4.269919357211799E-003
     18       2        15.07     0.92E-02  ( 15)
 ...adapted threshold to:  4.406716264413274E-003
     19       2        15.22     0.54E-02  ( 15)
 ...adapted threshold to:  4.453009136214464E-003
     20       1         8.26     0.34E-02  ( 15)
                                                
     summary of start vectors generation:
     -------------------------------------------
     type of solution vectors      : RE0
     symmetry                      : a  
     number of vectors requested   :    15
     number of vectors generated   :    15
       -- restarted from file      :    15
     -------------------------------------------
                                                

    Iter  #Vectors  time (min)    max. residual 
    --------------------------------------------
 threshold for this macro iteration:  1.000000000000000E-003
     21      15       118.41     0.13E-02  ( 15)
     22       1         8.27     0.19E-02  ( 15)
     23       3        24.28     0.14E-02  ( 15)
     24       1         8.22     0.94E-03  ( 15)
    --------------------------------------------
    converged in 24 iterations

         Total time       1212.75 minutes


 ===========================================




 Note that this is the intermediate result of a preoptimization!
 The convergence threshold was  0.1E-02 only!


 +==================================================================+
 | sym | multi | state |          ADC(2) excitation energies        |
 |     |       |       +--------------------------------------------+
 |     |       |       |   Hartree    |     eV       |     cm-1     |
 +==================================================================+
 | a   |   1   |   1   |    0.1381286 |      3.75867 |    30315.734 |
 | a   |   1   |   2   |    0.1569808 |      4.27166 |    34453.300 |
 | a   |   1   |   3   |    0.1629620 |      4.43442 |    35766.024 |
 | a   |   1   |   4   |    0.1651648 |      4.49436 |    36249.479 |
 | a   |   1   |   5   |    0.1886507 |      5.13345 |    41404.036 |
 | a   |   1   |   6   |    0.1951277 |      5.30970 |    42825.588 |
 | a   |   1   |   7   |    0.2034657 |      5.53658 |    44655.568 |
 | a   |   1   |   8   |    0.2098637 |      5.71068 |    46059.755 |
 | a   |   1   |   9   |    0.2183444 |      5.94145 |    47921.051 |
 | a   |   1   |  10   |    0.2203988 |      5.99736 |    48371.956 |
 | a   |   1   |  11   |    0.2244994 |      6.10894 |    49271.933 |
 | a   |   1   |  12   |    0.2315908 |      6.30191 |    50828.304 |
 | a   |   1   |  13   |    0.2331473 |      6.34426 |    51169.910 |
 | a   |   1   |  14   |    0.2332632 |      6.34741 |    51195.356 |
 | a   |   1   |  15   |    0.2353557 |      6.40435 |    51654.609 |
 +==================================================================+





  solve for ADC(2) excitation energies/vectors using a DIIS algorithm:
  =================================================================
                                                
     summary of start vectors generation:
     -------------------------------------------
     type of solution vectors      : RE0
     symmetry                      : a  
     number of vectors requested   :    15
     number of vectors generated   :    15
       -- restarted from file      :    15
     -------------------------------------------
                                                


 ========= DIIS CC RESPONSE SOLVER =========

    threshold for convergence:0.10E-05
    max. nb. of DIIS vectors :      10
    maximum number of simultaneous jacoby matrix transformations: 15

    Iter  #Vectors  time (min)   residual
    --------------------------------------
      1      15       118.16     0.49E-03  ( 11)    0.27E+00
      2      15       120.18     0.42E-03  ( 11)    0.18E-01
      3      15       128.47     0.31E-03  ( 11)    0.71E-01
      4      15       130.09     0.28E-03  ( 11)    0.18E+00
      5      15       129.56     0.31E-03  ( 11)    0.39E-02
      6      15       134.49     0.69E-03  ( 11)    0.54E-01
      7      13       106.34     0.11E-03  ( 14)    0.10E-01
      8      10        82.15     0.84E-04  ( 14)    0.83E-02
      9      10        70.25     0.63E-04  ( 13)    0.61E-02
     10       9        62.21     0.55E-04  ( 11)    0.60E-02
     11       7        51.01     0.41E-04  ( 15)    0.38E-02
     12       7        48.86     0.35E-04  ( 15)    0.67E-02
     13       6        42.23     0.27E-04  ( 15)    0.54E-02
     14       5        36.77     0.24E-04  ( 15)    0.30E-02
     15       5        35.60     0.23E-04  ( 15)    0.47E-02
     16       4        28.94     0.21E-04  ( 15)    0.29E-02
     17       4        29.45     0.20E-04  ( 15)    0.29E-02
     18       4        28.84     0.18E-04  ( 15)    0.30E-02
     19       3        21.85     0.17E-04  ( 15)    0.29E-02
     20       3        21.84     0.15E-04  ( 15)    0.29E-02
     21       3        21.84     0.13E-04  ( 15)    0.29E-02
     22       2        15.17     0.11E-04  ( 15)    0.30E-02
     23       1         8.21     0.83E-05  ( 15)    0.29E-02
     24       1         8.24     0.57E-05  ( 15)    0.29E-02
     25       1         8.24     0.38E-05  ( 15)    0.29E-02
     26       1         8.42     0.27E-05  ( 15)    0.29E-02
     27       1         8.29     0.18E-05  ( 15)    0.29E-02
     28       1         8.23     0.12E-05  ( 15)    0.29E-02
     29       1         8.22     0.80E-06  ( 15)    0.29E-02
    --------------------------------------
    converged in  29 iterations

   Total time       1522.16 minutes


 ===========================================





 +================================================================================+
 | sym | multi | state |          ADC(2) excitation energies    |  %t1   |  %t2   |
 |     |       |       +----------------------------------------+--------+--------+
 |     |       |       |   Hartree    |    eV      |    cm-1    |    %   |    %   |
 +================================================================================+
 | a   |   1   |   1   |    0.1381211 |    3.75847 |  30314.077 |  89.69 |  10.31 |
 | a   |   1   |   2   |    0.1569686 |    4.27133 |  34450.622 |  87.87 |  12.13 |
 | a   |   1   |   3   |    0.1629569 |    4.43428 |  35764.916 |  90.07 |   9.93 |
 | a   |   1   |   4   |    0.1651589 |    4.49420 |  36248.179 |  89.26 |  10.74 |
 | a   |   1   |   5   |    0.1886476 |    5.13336 |  41403.370 |  89.78 |  10.22 |
 | a   |   1   |   6   |    0.1951192 |    5.30946 |  42823.714 |  88.30 |  11.70 |
 | a   |   1   |   7   |    0.2034655 |    5.53658 |  44655.524 |  91.39 |   8.61 |
 | a   |   1   |   8   |    0.2098698 |    5.71085 |  46061.102 |  88.94 |  11.06 |
 | a   |   1   |   9   |    0.2183500 |    5.94160 |  47922.275 |  88.48 |  11.52 |
 | a   |   1   |  10   |    0.2204256 |    5.99809 |  48377.833 |  88.32 |  11.68 |
 | a   |   1   |  11   |    0.2244928 |    6.10876 |  49270.484 |  89.07 |  10.93 |
 | a   |   1   |  12   |    0.2315855 |    6.30176 |  50827.147 |  90.24 |   9.76 |
 | a   |   1   |  13   |    0.2331769 |    6.34506 |  51176.404 |  88.23 |  11.77 |
 | a   |   1   |  14   |    0.2332821 |    6.34793 |  51199.503 |  87.07 |  12.93 |
 | a   |   1   |  15   |    0.2354391 |    6.40662 |  51672.904 |  88.55 |  11.45 |
 +================================================================================+


       Energy:     0.1381211 H      3.75847 eV    30314.077 cm-1

     +=======================================================================+
     | type: RE0                    symmetry: a               state:    1    |
     +-----------------------+-----------------------+-----------------------+
     | occ. orb.  index spin | vir. orb.  index spin |  coeff/|amp|     %    |
     +=======================+=======================+=======================+
     |   50 a       50       |   57 a       57       |   0.85967      73.9   |
     |   50 a       50       |   76 a       76       |  -0.22786       5.2   |
     |   51 a       51       |   57 a       57       |   0.18630       3.5   |
     |   50 a       50       |   68 a       68       |   0.14315       2.0   |
     |   50 a       50       |   77 a       77       |   0.14293       2.0   |
     |   50 a       50       |   82 a       82       |   0.12811       1.6   |
     |   50 a       50       |   69 a       69       |   0.11280       1.3   |
     |   50 a       50       |   81 a       81       |   0.09646       0.9   |
     |   50 a       50       |   67 a       67       |   0.09631       0.9   |
     |   50 a       50       |   78 a       78       |  -0.09489       0.9   |
     |   50 a       50       |   63 a       63       |  -0.08810       0.8   |
     |   50 a       50       |   58 a       58       |   0.07090       0.5   |
     |   50 a       50       |   79 a       79       |   0.06898       0.5   |
     |   50 a       50       |   65 a       65       |  -0.06510       0.4   |
     |   50 a       50       |   60 a       60       |  -0.06291       0.4   |
     |   45 a       45       |   57 a       57       |   0.05949       0.4   |
     +=======================+=======================+=======================+
     norm of printed elements:  0.95258


       Energy:     0.1569686 H      4.27133 eV    34450.622 cm-1

     +=======================================================================+
     | type: RE0                    symmetry: a               state:    2    |
     +-----------------------+-----------------------+-----------------------+
     | occ. orb.  index spin | vir. orb.  index spin |  coeff/|amp|     %    |
     +=======================+=======================+=======================+
     |   56 a       56       |   57 a       57       |   0.89567      80.2   |
     |   55 a       55       |   57 a       57       |   0.27014       7.3   |
     |   53 a       53       |   57 a       57       |  -0.12129       1.5   |
     |   56 a       56       |   70 a       70       |   0.08256       0.7   |
     |   56 a       56       |   63 a       63       |  -0.07877       0.6   |
     |   56 a       56       |   67 a       67       |   0.07466       0.6   |
     |   55 a       55       |   63 a       63       |  -0.07282       0.5   |
     |   55 a       55       |   61 a       61       |   0.07140       0.5   |
     |   56 a       56       |   58 a       58       |   0.06465       0.4   |
     |   55 a       55       |   70 a       70       |   0.06220       0.4   |
     |   44 a       44       |   57 a       57       |   0.05951       0.4   |
     |   51 a       51       |   57 a       57       |   0.05737       0.3   |
     |   53 a       53       |   61 a       61       |   0.05677       0.3   |
     |   56 a       56       |   60 a       60       |  -0.05423       0.3   |
     |   56 a       56       |   68 a       68       |   0.05389       0.3   |
     |   56 a       56       |   71 a       71       |  -0.05252       0.3   |
     |   56 a       56       |   76 a       76       |  -0.04512       0.2   |
     |   56 a       56       |   65 a       65       |  -0.04199       0.2   |
     |   51 a       51       |   76 a       76       |   0.04111       0.2   |
     +=======================+=======================+=======================+
     norm of printed elements:  0.95110


       Energy:     0.1629569 H      4.43428 eV    35764.916 cm-1

     +=======================================================================+
     | type: RE0                    symmetry: a               state:    3    |
     +-----------------------+-----------------------+-----------------------+
     | occ. orb.  index spin | vir. orb.  index spin |  coeff/|amp|     %    |
     +=======================+=======================+=======================+
     |   49 a       49       |   57 a       57       |   0.84432      71.3   |
     |   49 a       49       |   76 a       76       |  -0.21148       4.5   |
     |   49 a       49       |   68 a       68       |   0.13537       1.8   |
     |   49 a       49       |   77 a       77       |   0.13209       1.7   |
     |   51 a       51       |   57 a       57       |  -0.12916       1.7   |
     |   48 a       48       |   57 a       57       |   0.12331       1.5   |
     |   49 a       49       |   82 a       82       |   0.11742       1.4   |
     |   49 a       49       |   69 a       69       |   0.10541       1.1   |
     |   47 a       47       |   57 a       57       |   0.09741       0.9   |
     |   49 a       49       |   67 a       67       |   0.09343       0.9   |
     |   55 a       55       |   57 a       57       |   0.08952       0.8   |
     |   49 a       49       |   81 a       81       |   0.08871       0.8   |
     |   49 a       49       |   78 a       78       |  -0.08771       0.8   |
     |   49 a       49       |   63 a       63       |  -0.08458       0.7   |
     |   43 a       43       |   57 a       57       |  -0.08347       0.7   |
     |   46 a       46       |   57 a       57       |  -0.07506       0.6   |
     |   45 a       45       |   57 a       57       |  -0.07200       0.5   |
     |   49 a       49       |   58 a       58       |   0.06940       0.5   |
     |   49 a       49       |   79 a       79       |   0.06378       0.4   |
     |   31 a       31       |   57 a       57       |  -0.06266       0.4   |
     +=======================+=======================+=======================+
     norm of printed elements:  0.92970


       Energy:     0.1651589 H      4.49420 eV    36248.179 cm-1

     +=======================================================================+
     | type: RE0                    symmetry: a               state:    4    |
     +-----------------------+-----------------------+-----------------------+
     | occ. orb.  index spin | vir. orb.  index spin |  coeff/|amp|     %    |
     +=======================+=======================+=======================+
     |   56 a       56       |   61 a       61       |  -0.59165      35.0   |
     |   56 a       56       |   63 a       63       |   0.40333      16.3   |
     |   55 a       55       |   57 a       57       |   0.36019      13.0   |
     |   53 a       53       |   57 a       57       |   0.23826       5.7   |
     |   55 a       55       |   61 a       61       |  -0.22488       5.1   |
     |   56 a       56       |   70 a       70       |  -0.21897       4.8   |
     |   56 a       56       |   69 a       69       |   0.15497       2.4   |
     |   56 a       56       |   66 a       66       |   0.14750       2.2   |
     |   55 a       55       |   63 a       63       |   0.13385       1.8   |
     |   56 a       56       |   65 a       65       |   0.09637       0.9   |
     |   56 a       56       |   67 a       67       |  -0.08954       0.8   |
     |   56 a       56       |   78 a       78       |   0.07378       0.5   |
     |   55 a       55       |   71 a       71       |  -0.07075       0.5   |
     |   55 a       55       |   73 a       73       |  -0.06998       0.5   |
     |   55 a       55       |   69 a       69       |   0.06934       0.5   |
     |   49 a       49       |   57 a       57       |  -0.06898       0.5   |
     |   55 a       55       |   72 a       72       |  -0.06437       0.4   |
     |   56 a       56       |   59 a       59       |   0.06409       0.4   |
     |   53 a       53       |   70 a       70       |   0.06394       0.4   |
     |   56 a       56       |   64 a       64       |  -0.06284       0.4   |
     +=======================+=======================+=======================+
     norm of printed elements:  0.91994


       Energy:     0.1886476 H      5.13336 eV    41403.370 cm-1

     +=======================================================================+
     | type: RE0                    symmetry: a               state:    5    |
     +-----------------------+-----------------------+-----------------------+
     | occ. orb.  index spin | vir. orb.  index spin |  coeff/|amp|     %    |
     +=======================+=======================+=======================+
     |   54 a       54       |   61 a       61       |   0.42829      18.3   |
     |   56 a       56       |   64 a       64       |  -0.39757      15.8   |
     |   56 a       56       |   68 a       68       |   0.31880      10.2   |
     |   54 a       54       |   63 a       63       |  -0.31498       9.9   |
     |   55 a       55       |   64 a       64       |   0.24830       6.2   |
     |   54 a       54       |   69 a       69       |   0.24220       5.9   |
     |   55 a       55       |   68 a       68       |  -0.21104       4.5   |
     |   54 a       54       |   68 a       68       |   0.20052       4.0   |
     |   56 a       56       |   69 a       69       |  -0.16598       2.8   |
     |   53 a       53       |   64 a       64       |  -0.15052       2.3   |
     |   53 a       53       |   68 a       68       |   0.14020       2.0   |
     |   55 a       55       |   69 a       69       |   0.13444       1.8   |
     |   56 a       56       |   62 a       62       |  -0.09937       1.0   |
     |   54 a       54       |   57 a       57       |  -0.09371       0.9   |
     |   55 a       55       |   61 a       61       |   0.09226       0.9   |
     |   54 a       54       |   70 a       70       |  -0.09204       0.8   |
     |   56 a       56       |   63 a       63       |  -0.09158       0.8   |
     |   53 a       53       |   69 a       69       |  -0.07992       0.6   |
     |   55 a       55       |   57 a       57       |   0.06849       0.5   |
     |   56 a       56       |   65 a       65       |   0.06642       0.4   |
     +=======================+=======================+=======================+
     norm of printed elements:  0.89485


       Energy:     0.1951192 H      5.30946 eV    42823.714 cm-1

     +=======================================================================+
     | type: RE0                    symmetry: a               state:    6    |
     +-----------------------+-----------------------+-----------------------+
     | occ. orb.  index spin | vir. orb.  index spin |  coeff/|amp|     %    |
     +=======================+=======================+=======================+
     |   55 a       55       |   57 a       57       |   0.66283      43.9   |
     |   56 a       56       |   61 a       61       |   0.40360      16.3   |
     |   53 a       53       |   57 a       57       |   0.33029      10.9   |
     |   56 a       56       |   63 a       63       |  -0.25910       6.7   |
     |   52 a       52       |   57 a       57       |   0.21428       4.6   |
     |   56 a       56       |   57 a       57       |  -0.19596       3.8   |
     |   56 a       56       |   69 a       69       |   0.15925       2.5   |
     |   51 a       51       |   61 a       61       |   0.10332       1.1   |
     |   56 a       56       |   68 a       68       |   0.08164       0.7   |
     |   51 a       51       |   63 a       63       |  -0.06649       0.4   |
     |   56 a       56       |   70 a       70       |  -0.06577       0.4   |
     |   55 a       55       |   58 a       58       |   0.06328       0.4   |
     |   56 a       56       |   59 a       59       |  -0.06015       0.4   |
     |   55 a       55       |   61 a       61       |  -0.05291       0.3   |
     |   56 a       56       |   67 a       67       |   0.04883       0.2   |
     |   55 a       55       |   60 a       60       |  -0.04685       0.2   |
     |   55 a       55       |   68 a       68       |   0.04507       0.2   |
     |   52 a       52       |   76 a       76       |  -0.04413       0.2   |
     |   55 a       55       |   67 a       67       |   0.04267       0.2   |
     |   56 a       56       |   65 a       65       |  -0.03926       0.2   |
     +=======================+=======================+=======================+
     norm of printed elements:  0.93658


       Energy:     0.2034655 H      5.53658 eV    44655.524 cm-1

     +=======================================================================+
     | type: RE0                    symmetry: a               state:    7    |
     +-----------------------+-----------------------+-----------------------+
     | occ. orb.  index spin | vir. orb.  index spin |  coeff/|amp|     %    |
     +=======================+=======================+=======================+
     |   56 a       56       |   58 a       58       |   0.78925      62.3   |
     |   56 a       56       |   59 a       59       |  -0.30514       9.3   |
     |   55 a       55       |   58 a       58       |   0.24240       5.9   |
     |   51 a       51       |   58 a       58       |   0.16563       2.7   |
     |   55 a       55       |   59 a       59       |  -0.16265       2.6   |
     |   56 a       56       |   62 a       62       |  -0.14730       2.2   |
     |   56 a       56       |   63 a       63       |   0.12570       1.6   |
     |   56 a       56       |   65 a       65       |   0.10189       1.0   |
     |   56 a       56       |   87 a       87       |  -0.08304       0.7   |
     |   56 a       56       |   68 a       68       |  -0.07916       0.6   |
     |   56 a       56       |   60 a       60       |  -0.07911       0.6   |
     |   51 a       51       |   59 a       59       |  -0.07283       0.5   |
     |   44 a       44       |   58 a       58       |   0.06862       0.5   |
     |   56 a       56       |   93 a       93       |  -0.05755       0.3   |
     |   56 a       56       |   89 a       89       |   0.05612       0.3   |
     |   51 a       51       |   60 a       60       |  -0.05459       0.3   |
     |   56 a       56       |   94 a       94       |   0.05455       0.3   |
     |   56 a       56       |   92 a       92       |  -0.05382       0.3   |
     |   51 a       51       |   63 a       63       |   0.05283       0.3   |
     |   56 a       56       |   82 a       82       |  -0.04962       0.2   |
     +=======================+=======================+=======================+
     norm of printed elements:  0.92655


       Energy:     0.2098698 H      5.71085 eV    46061.102 cm-1

     +=======================================================================+
     | type: RE0                    symmetry: a               state:    8    |
     +-----------------------+-----------------------+-----------------------+
     | occ. orb.  index spin | vir. orb.  index spin |  coeff/|amp|     %    |
     +=======================+=======================+=======================+
     |   56 a       56       |   69 a       69       |  -0.45869      21.0   |
     |   52 a       52       |   57 a       57       |   0.38137      14.5   |
     |   56 a       56       |   68 a       68       |  -0.33218      11.0   |
     |   56 a       56       |   70 a       70       |   0.31527       9.9   |
     |   55 a       55       |   61 a       61       |   0.21951       4.8   |
     |   56 a       56       |   63 a       63       |   0.20732       4.3   |
     |   55 a       55       |   57 a       57       |   0.20440       4.2   |
     |   56 a       56       |   61 a       61       |  -0.17245       3.0   |
     |   56 a       56       |   76 a       76       |   0.14201       2.0   |
     |   55 a       55       |   63 a       63       |  -0.14143       2.0   |
     |   56 a       56       |   66 a       66       |  -0.13992       2.0   |
     |   55 a       55       |   70 a       70       |   0.11975       1.4   |
     |   56 a       56       |   64 a       64       |   0.11347       1.3   |
     |   53 a       53       |   57 a       57       |   0.10837       1.2   |
     |   56 a       56       |   82 a       82       |  -0.09768       1.0   |
     |   55 a       55       |   69 a       69       |  -0.08615       0.7   |
     |   51 a       51       |   57 a       57       |   0.08273       0.7   |
     |   56 a       56       |   77 a       77       |  -0.07214       0.5   |
     |   55 a       55       |   66 a       66       |  -0.07213       0.5   |
     |   56 a       56       |   90 a       90       |   0.06594       0.4   |
     +=======================+=======================+=======================+
     norm of printed elements:  0.86554


       Energy:     0.2183500 H      5.94160 eV    47922.275 cm-1

     +=======================================================================+
     | type: RE0                    symmetry: a               state:    9    |
     +-----------------------+-----------------------+-----------------------+
     | occ. orb.  index spin | vir. orb.  index spin |  coeff/|amp|     %    |
     +=======================+=======================+=======================+
     |   52 a       52       |   57 a       57       |   0.56419      31.8   |
     |   56 a       56       |   64 a       64       |  -0.43748      19.1   |
     |   56 a       56       |   68 a       68       |   0.25065       6.3   |
     |   55 a       55       |   57 a       57       |  -0.20974       4.4   |
     |   55 a       55       |   64 a       64       |  -0.19671       3.9   |
     |   54 a       54       |   61 a       61       |  -0.19546       3.8   |
     |   56 a       56       |   63 a       63       |  -0.16262       2.6   |
     |   56 a       56       |   61 a       61       |  -0.14573       2.1   |
     |   56 a       56       |   60 a       60       |   0.13810       1.9   |
     |   54 a       54       |   63 a       63       |   0.13346       1.8   |
     |   55 a       55       |   68 a       68       |   0.12519       1.6   |
     |   56 a       56       |   62 a       62       |  -0.12321       1.5   |
     |   53 a       53       |   64 a       64       |   0.10982       1.2   |
     |   52 a       52       |   76 a       76       |  -0.09341       0.9   |
     |   55 a       55       |   61 a       61       |  -0.09040       0.8   |
     |   56 a       56       |   58 a       58       |   0.08664       0.8   |
     |   53 a       53       |   68 a       68       |  -0.08376       0.7   |
     |   51 a       51       |   64 a       64       |  -0.07902       0.6   |
     |   56 a       56       |   59 a       59       |   0.07890       0.6   |
     |   54 a       54       |   69 a       69       |  -0.07829       0.6   |
     +=======================+=======================+=======================+
     norm of printed elements:  0.87092


       Energy:     0.2204256 H      5.99809 eV    48377.833 cm-1

     +=======================================================================+
     | type: RE0                    symmetry: a               state:   10    |
     +-----------------------+-----------------------+-----------------------+
     | occ. orb.  index spin | vir. orb.  index spin |  coeff/|amp|     %    |
     +=======================+=======================+=======================+
     |   52 a       52       |   57 a       57       |   0.54190      29.4   |
     |   56 a       56       |   64 a       64       |   0.36293      13.2   |
     |   56 a       56       |   69 a       69       |   0.28617       8.2   |
     |   55 a       55       |   57 a       57       |  -0.26836       7.2   |
     |   54 a       54       |   61 a       61       |   0.19400       3.8   |
     |   56 a       56       |   60 a       60       |  -0.18677       3.5   |
     |   56 a       56       |   70 a       70       |  -0.17869       3.2   |
     |   55 a       55       |   64 a       64       |   0.17563       3.1   |
     |   56 a       56       |   57 a       57       |   0.14016       2.0   |
     |   56 a       56       |   63 a       63       |   0.13593       1.8   |
     |   54 a       54       |   63 a       63       |  -0.12403       1.5   |
     |   56 a       56       |   66 a       66       |   0.11476       1.3   |
     |   55 a       55       |   69 a       69       |   0.10574       1.1   |
     |   53 a       53       |   64 a       64       |  -0.10089       1.0   |
     |   56 a       56       |   61 a       61       |   0.09878       1.0   |
     |   54 a       54       |   69 a       69       |   0.09500       0.9   |
     |   56 a       56       |   62 a       62       |   0.09400       0.9   |
     |   55 a       55       |   68 a       68       |  -0.09053       0.8   |
     |   52 a       52       |   76 a       76       |  -0.08720       0.8   |
     |   55 a       55       |   63 a       63       |   0.08515       0.7   |
     +=======================+=======================+=======================+
     norm of printed elements:  0.85328


       Energy:     0.2244928 H      6.10876 eV    49270.484 cm-1

     +=======================================================================+
     | type: RE0                    symmetry: a               state:   11    |
     +-----------------------+-----------------------+-----------------------+
     | occ. orb.  index spin | vir. orb.  index spin |  coeff/|amp|     %    |
     +=======================+=======================+=======================+
     |   55 a       55       |   61 a       61       |  -0.65601      43.0   |
     |   55 a       55       |   63 a       63       |   0.48401      23.4   |
     |   56 a       56       |   69 a       69       |  -0.23900       5.7   |
     |   56 a       56       |   70 a       70       |   0.16088       2.6   |
     |   55 a       55       |   68 a       68       |  -0.14047       2.0   |
     |   56 a       56       |   61 a       61       |   0.13900       1.9   |
     |   54 a       54       |   64 a       64       |   0.12115       1.5   |
     |   56 a       56       |   66 a       66       |  -0.11886       1.4   |
     |   56 a       56       |   68 a       68       |  -0.10307       1.1   |
     |   56 a       56       |   57 a       57       |   0.09259       0.9   |
     |   55 a       55       |   67 a       67       |  -0.08876       0.8   |
     |   54 a       54       |   68 a       68       |  -0.08418       0.7   |
     |   55 a       55       |   65 a       65       |   0.07983       0.6   |
     |   56 a       56       |   59 a       59       |  -0.07851       0.6   |
     |   53 a       53       |   61 a       61       |   0.07612       0.6   |
     |   56 a       56       |   63 a       63       |  -0.07480       0.6   |
     |   55 a       55       |   66 a       66       |   0.07096       0.5   |
     |   54 a       54       |   57 a       57       |   0.07067       0.5   |
     |   54 a       54       |   61 a       61       |   0.06971       0.5   |
     |   53 a       53       |   68 a       68       |   0.06493       0.4   |
     +=======================+=======================+=======================+
     norm of printed elements:  0.89267


       Energy:     0.2315855 H      6.30176 eV    50827.147 cm-1

     +=======================================================================+
     | type: RE0                    symmetry: a               state:   12    |
     +-----------------------+-----------------------+-----------------------+
     | occ. orb.  index spin | vir. orb.  index spin |  coeff/|amp|     %    |
     +=======================+=======================+=======================+
     |   56 a       56       |   59 a       59       |   0.70127      49.2   |
     |   56 a       56       |   58 a       58       |   0.28566       8.2   |
     |   56 a       56       |   62 a       62       |  -0.27342       7.5   |
     |   55 a       55       |   58 a       58       |  -0.22756       5.2   |
     |   53 a       53       |   57 a       57       |  -0.18425       3.4   |
     |   56 a       56       |   68 a       68       |  -0.16372       2.7   |
     |   55 a       55       |   59 a       59       |   0.15016       2.3   |
     |   56 a       56       |   64 a       64       |   0.12363       1.5   |
     |   56 a       56       |   78 a       78       |  -0.11311       1.3   |
     |   55 a       55       |   57 a       57       |   0.10395       1.1   |
     |   51 a       51       |   59 a       59       |   0.09898       1.0   |
     |   55 a       55       |   62 a       62       |  -0.09877       1.0   |
     |   56 a       56       |   90 a       90       |  -0.09807       1.0   |
     |   56 a       56       |   70 a       70       |   0.09593       0.9   |
     |   56 a       56       |   71 a       71       |   0.09439       0.9   |
     |   56 a       56       |   91 a       91       |  -0.08224       0.7   |
     |   56 a       56       |   69 a       69       |   0.07852       0.6   |
     |   56 a       56       |   57 a       57       |  -0.07811       0.6   |
     |   56 a       56       |   67 a       67       |   0.06765       0.5   |
     |   56 a       56       |   75 a       75       |   0.06743       0.5   |
     +=======================+=======================+=======================+
     norm of printed elements:  0.89754


       Energy:     0.2331769 H      6.34506 eV    51176.404 cm-1

     +=======================================================================+
     | type: RE0                    symmetry: a               state:   13    |
     +-----------------------+-----------------------+-----------------------+
     | occ. orb.  index spin | vir. orb.  index spin |  coeff/|amp|     %    |
     +=======================+=======================+=======================+
     |   54 a       54       |   57 a       57       |   0.62158      38.6   |
     |   56 a       56       |   60 a       60       |  -0.31462       9.9   |
     |   56 a       56       |   76 a       76       |   0.22213       4.9   |
     |   56 a       56       |   65 a       65       |   0.19599       3.8   |
     |   56 a       56       |   61 a       61       |   0.18345       3.4   |
     |   56 a       56       |   68 a       68       |   0.16192       2.6   |
     |   53 a       53       |   57 a       57       |   0.15664       2.5   |
     |   51 a       51       |   57 a       57       |   0.14375       2.1   |
     |   56 a       56       |   63 a       63       |   0.14071       2.0   |
     |   56 a       56       |   62 a       62       |  -0.13700       1.9   |
     |   56 a       56       |   59 a       59       |   0.12130       1.5   |
     |   56 a       56       |   66 a       66       |   0.11982       1.4   |
     |   56 a       56       |   72 a       72       |  -0.11797       1.4   |
     |   56 a       56       |   78 a       78       |   0.11514       1.3   |
     |   54 a       54       |   64 a       64       |   0.10767       1.2   |
     |   56 a       56       |   71 a       71       |  -0.10765       1.2   |
     |   56 a       56       |   77 a       77       |  -0.10443       1.1   |
     |   56 a       56       |   73 a       73       |  -0.10269       1.1   |
     |   54 a       54       |   68 a       68       |  -0.09789       1.0   |
     |   55 a       55       |   61 a       61       |   0.09691       0.9   |
     +=======================+=======================+=======================+
     norm of printed elements:  0.83660


       Energy:     0.2332821 H      6.34793 eV    51199.503 cm-1

     +=======================================================================+
     | type: RE0                    symmetry: a               state:   14    |
     +-----------------------+-----------------------+-----------------------+
     | occ. orb.  index spin | vir. orb.  index spin |  coeff/|amp|     %    |
     +=======================+=======================+=======================+
     |   53 a       53       |   57 a       57       |  -0.62948      39.6   |
     |   54 a       54       |   57 a       57       |   0.49033      24.0   |
     |   55 a       55       |   57 a       57       |   0.24606       6.1   |
     |   56 a       56       |   59 a       59       |  -0.16536       2.7   |
     |   56 a       56       |   57 a       57       |  -0.15815       2.5   |
     |   52 a       52       |   57 a       57       |   0.14746       2.2   |
     |   56 a       56       |   61 a       61       |  -0.12378       1.5   |
     |   56 a       56       |   76 a       76       |  -0.11226       1.3   |
     |   56 a       56       |   62 a       62       |   0.10943       1.2   |
     |   56 a       56       |   60 a       60       |   0.10607       1.1   |
     |   56 a       56       |   70 a       70       |  -0.10506       1.1   |
     |   56 a       56       |   69 a       69       |   0.09883       1.0   |
     |   46 a       46       |   57 a       57       |   0.08757       0.8   |
     |   51 a       51       |   61 a       61       |  -0.07992       0.6   |
     |   54 a       54       |   64 a       64       |   0.07444       0.6   |
     |   56 a       56       |   65 a       65       |  -0.07175       0.5   |
     |   53 a       53       |   70 a       70       |  -0.06876       0.5   |
     |   55 a       55       |   68 a       68       |  -0.06250       0.4   |
     |   51 a       51       |   57 a       57       |  -0.06214       0.4   |
     |   54 a       54       |   68 a       68       |  -0.06163       0.4   |
     +=======================+=======================+=======================+
     norm of printed elements:  0.88431


       Energy:     0.2354391 H      6.40662 eV    51672.904 cm-1

     +=======================================================================+
     | type: RE0                    symmetry: a               state:   15    |
     +-----------------------+-----------------------+-----------------------+
     | occ. orb.  index spin | vir. orb.  index spin |  coeff/|amp|     %    |
     +=======================+=======================+=======================+
     |   56 a       56       |   60 a       60       |   0.46936      22.0   |
     |   54 a       54       |   57 a       57       |   0.41425      17.2   |
     |   53 a       53       |   57 a       57       |   0.36924      13.6   |
     |   56 a       56       |   63 a       63       |  -0.25622       6.6   |
     |   56 a       56       |   68 a       68       |  -0.23553       5.5   |
     |   56 a       56       |   69 a       69       |   0.18341       3.4   |
     |   56 a       56       |   58 a       58       |   0.17261       3.0   |
     |   56 a       56       |   61 a       61       |  -0.13843       1.9   |
     |   55 a       55       |   63 a       63       |  -0.13382       1.8   |
     |   54 a       54       |   61 a       61       |   0.13312       1.8   |
     |   55 a       55       |   60 a       60       |   0.13180       1.7   |
     |   55 a       55       |   57 a       57       |  -0.12469       1.6   |
     |   54 a       54       |   63 a       63       |  -0.11584       1.3   |
     |   56 a       56       |   66 a       66       |  -0.11050       1.2   |
     |   56 a       56       |   65 a       65       |  -0.10939       1.2   |
     |   56 a       56       |   62 a       62       |   0.10674       1.1   |
     |   55 a       55       |   69 a       69       |   0.10027       1.0   |
     |   56 a       56       |   57 a       57       |   0.08729       0.8   |
     |   56 a       56       |   92 a       92       |   0.08014       0.6   |
     |   52 a       52       |   57 a       57       |  -0.07962       0.6   |
     +=======================+=======================+=======================+
     norm of printed elements:  0.87993



     Info: copy ADC(2) right eigenvectors into left eigenvector files.


                    ========   CC DENSITY MODULE   ========

                      current wave-function model: ADC(2)  

  calculating overlap between   15 left and right vector(s)
    density nr.      cpu/min        wall/min    L     R
   ------------------------------------------------------
         1             6.35            6.51    LE0    RE0 
         2             6.36            6.57    LE0    RE0 
         3             6.35            6.56    LE0    RE0 
         4             6.36            6.56    LE0    RE0 
         5             6.35            6.56    LE0    RE0 
         6             6.36            6.57    LE0    RE0 
         7             6.35            6.58    LE0    RE0 
         8             6.36            6.61    LE0    RE0 
         9             6.35            6.56    LE0    RE0 
        10             6.35            6.56    LE0    RE0 
        11             6.36            6.56    LE0    RE0 
        12             6.35            6.59    LE0    RE0 
        13             6.35            6.57    LE0    RE0 
        14             6.35            6.55    LE0    RE0 
        15             6.35            6.55    LE0    RE0 
   ------------------------------------------------------
     time in cc_1den       cpu:  1 h 35 min  wall:  1 h 38 min  ratio:  1.0



     +==========================================================+
     |   contributions of excitation levels to excited states   |
     |     wavefunctions as computed from the <L|R> overlap     |
     +----------------------------------------------------------+
     | sym | multi | state |    E / eV  | % singles | % doubles |
     +==========================================================+
     | a   |   1   |   1   |    3.75847 |   89.69   |   10.31   |
     | a   |   1   |   2   |    4.27133 |   87.87   |   12.13   |
     | a   |   1   |   3   |    4.43428 |   90.07   |    9.93   |
     | a   |   1   |   4   |    4.49420 |   89.26   |   10.74   |
     | a   |   1   |   5   |    5.13336 |   89.78   |   10.22   |
     | a   |   1   |   6   |    5.30946 |   88.30   |   11.70   |
     | a   |   1   |   7   |    5.53658 |   91.39   |    8.61   |
     | a   |   1   |   8   |    5.71085 |   88.94   |   11.06   |
     | a   |   1   |   9   |    5.94160 |   88.48   |   11.52   |
     | a   |   1   |  10   |    5.99809 |   88.32   |   11.68   |
     | a   |   1   |  11   |    6.10876 |   89.07   |   10.93   |
     | a   |   1   |  12   |    6.30176 |   90.24   |    9.76   |
     | a   |   1   |  13   |    6.34506 |   88.23   |   11.77   |
     | a   |   1   |  14   |    6.34793 |   87.07   |   12.93   |
     | a   |   1   |  15   |    6.40662 |   88.55   |   11.45   |
     +==========================================================+



      The semi-canonical algorithm will be used for densities


                    ========   CC DENSITY MODULE   ========

                      current wave-function model: ADC(2)  

  calculating    15 xi densities

   a semicanonical algorithm will be used

    density nr.      cpu/min        wall/min    L     R
   ------------------------------------------------------
         1            11.19           11.96    LE0    R0  
         2            11.15           11.89    LE0    R0  
         3            11.28           12.04    LE0    R0  
         4            11.12           11.94    LE0    R0  
         5            11.01           11.80    LE0    R0  
         6            11.07           11.87    LE0    R0  
         7            11.31           12.13    LE0    R0  
         8            11.17           12.05    LE0    R0  
         9            11.15           11.99    LE0    R0  
        10            11.05           11.85    LE0    R0  
        11            11.23           11.98    LE0    R0  
        12            11.28           12.02    LE0    R0  
        13            11.37           12.25    LE0    R0  
        14            11.22           12.01    LE0    R0  
        15            11.22           12.03    LE0    R0  
   ------------------------------------------------------
     time in cc_1den       cpu:  2 h 47 min  wall:  2 h 59 min  ratio:  0.9


 **************************************************************
 *                                                            *
 *<<<<<<<<<<<<  ONE-PHOTON ABSORPTION STRENGTHS  >>>>>>>>>>>>>*
 *                                                            *
 **************************************************************



  +=========================================================================+
  |  Transition                                             model: ADC(2)   |
  |    number, symmetry, multiplicity:    1 a    1                          |
  |    frequency :   0.1381210960 a.u.     3.75847 e.V.     30314.1 rcm     |
  +=========================================================================+

     +-----------+-----------------+-----------------+---------------------+
     | operator  |   left moment   |  right moment   | transition strength |
     +-----------+-----------------+-----------------+---------------------+
     | xdiplen   |      0.01206064 |      0.01206064 |       0.00014546    |
     | ydiplen   |     -0.00804977 |     -0.00804977 |       0.00006480    |
     | zdiplen   |      0.00219538 |      0.00219538 |       0.00000482    |
     | xdipvel   |      0.00173335 |     -0.00173335 |       0.00000300    |
     | ydipvel   |     -0.00125023 |      0.00125023 |       0.00000156    |
     | zdipvel   |      0.00028501 |     -0.00028501 |       0.00000008    |
     | xangmom   |      0.41234578 |     -0.41234578 |       0.17002904    |
     | yangmom   |     -0.38045603 |      0.38045603 |       0.14474679    |
     | zangmom   |      0.03857151 |     -0.03857151 |       0.00148776    |
     +-----------+-----------------+-----------------+---------------------+
 
       oscillator strength (length gauge)   :      0.00001980
       oscillator strength (velocity gauge) :      0.00002244
       oscillator strength (mixed gauge)    :      0.00002106
 
       rotator strength (length gauge)      :      0.00406021 a.u.
       Rotator strength (length gauge)      :      1.91415950 10^(-40)*erg*cm^3
       rotator strength (velocity gauge)    :      0.00434905 a.u.
       Rotator strength (velocity gauge)    :      2.05033026 10^(-40)*erg*cm^3
 


  +=========================================================================+
  |  Transition                                             model: ADC(2)   |
  |    number, symmetry, multiplicity:    2 a    1                          |
  |    frequency :   0.1569685841 a.u.     4.27133 e.V.     34450.6 rcm     |
  +=========================================================================+

     +-----------+-----------------+-----------------+---------------------+
     | operator  |   left moment   |  right moment   | transition strength |
     +-----------+-----------------+-----------------+---------------------+
     | xdiplen   |     -1.42852520 |     -1.42852520 |       2.04068425    |
     | ydiplen   |      1.19051377 |      1.19051377 |       1.41732305    |
     | zdiplen   |     -0.16435263 |     -0.16435263 |       0.02701179    |
     | xdipvel   |     -0.22642662 |      0.22642662 |       0.05126901    |
     | ydipvel   |      0.18996576 |     -0.18996576 |       0.03608699    |
     | zdipvel   |     -0.02623672 |      0.02623672 |       0.00068837    |
     | xangmom   |      0.09699835 |     -0.09699835 |       0.00940868    |
     | yangmom   |      0.10265305 |     -0.10265305 |       0.01053765    |
     | zangmom   |      0.87602587 |     -0.87602587 |       0.76742133    |
     +-----------+-----------------+-----------------+---------------------+
 
       oscillator strength (length gauge)   :      0.36469234
       oscillator strength (velocity gauge) :      0.37393626
       oscillator strength (mixed gauge)    :      0.36928337
 
       rotator strength (length gauge)      :     -0.08016594 a.u.
       Rotator strength (length gauge)      :    -37.79371439 10^(-40)*erg*cm^3
       rotator strength (velocity gauge)    :     -0.08105600 a.u.
       Rotator strength (velocity gauge)    :    -38.21332926 10^(-40)*erg*cm^3
 


  +=========================================================================+
  |  Transition                                             model: ADC(2)   |
  |    number, symmetry, multiplicity:    3 a    1                          |
  |    frequency :   0.1629569496 a.u.     4.43428 e.V.     35764.9 rcm     |
  +=========================================================================+

     +-----------+-----------------+-----------------+---------------------+
     | operator  |   left moment   |  right moment   | transition strength |
     +-----------+-----------------+-----------------+---------------------+
     | xdiplen   |     -0.07032594 |     -0.07032594 |       0.00494574    |
     | ydiplen   |      0.11152658 |      0.11152658 |       0.01243818    |
     | zdiplen   |      0.04932229 |      0.04932229 |       0.00243269    |
     | xdipvel   |     -0.01202976 |      0.01202976 |       0.00014472    |
     | ydipvel   |      0.01875140 |     -0.01875140 |       0.00035161    |
     | zdipvel   |      0.01234334 |     -0.01234334 |       0.00015236    |
     | xangmom   |     -0.73770992 |      0.73770992 |       0.54421593    |
     | yangmom   |     -0.86008697 |      0.86008697 |       0.73974959    |
     | zangmom   |      0.20424703 |     -0.20424703 |       0.04171685    |
     +-----------+-----------------+-----------------+---------------------+
 
       oscillator strength (length gauge)   :      0.00215284
       oscillator strength (velocity gauge) :      0.00265382
       oscillator strength (mixed gauge)    :      0.00236406
 
       rotator strength (length gauge)      :     -0.01698424 a.u.
       Rotator strength (length gauge)      :     -8.00711032 10^(-40)*erg*cm^3
       rotator strength (velocity gauge)    :     -0.01452000 a.u.
       Rotator strength (velocity gauge)    :     -6.84535819 10^(-40)*erg*cm^3
 


  +=========================================================================+
  |  Transition                                             model: ADC(2)   |
  |    number, symmetry, multiplicity:    4 a    1                          |
  |    frequency :   0.1651588580 a.u.     4.49420 e.V.     36248.2 rcm     |
  +=========================================================================+

     +-----------+-----------------+-----------------+---------------------+
     | operator  |   left moment   |  right moment   | transition strength |
     +-----------+-----------------+-----------------+---------------------+
     | xdiplen   |      0.31789552 |      0.31789552 |       0.10105756    |
     | ydiplen   |      0.55498589 |      0.55498589 |       0.30800934    |
     | zdiplen   |     -0.08800163 |     -0.08800163 |       0.00774429    |
     | xdipvel   |      0.04486064 |     -0.04486064 |       0.00201248    |
     | ydipvel   |      0.08986638 |     -0.08986638 |       0.00807597    |
     | zdipvel   |     -0.01309814 |      0.01309814 |       0.00017156    |
     | xangmom   |      0.15219928 |     -0.15219928 |       0.02316462    |
     | yangmom   |      0.15793254 |     -0.15793254 |       0.02494269    |
     | zangmom   |      1.06786736 |     -1.06786736 |       1.14034069    |
     +-----------+-----------------+-----------------+---------------------+
 
       oscillator strength (length gauge)   :      0.04589337
       oscillator strength (velocity gauge) :      0.04141469
       oscillator strength (mixed gauge)    :      0.04352549
 
       rotator strength (length gauge)      :      0.02102987 a.u.
       Rotator strength (length gauge)      :      9.91439473 10^(-40)*erg*cm^3
       rotator strength (velocity gauge)    :      0.02129315 a.u.
       Rotator strength (velocity gauge)    :     10.03851810 10^(-40)*erg*cm^3
 


  +=========================================================================+
  |  Transition                                             model: ADC(2)   |
  |    number, symmetry, multiplicity:    5 a    1                          |
  |    frequency :   0.1886476361 a.u.     5.13336 e.V.     41403.4 rcm     |
  +=========================================================================+

     +-----------+-----------------+-----------------+---------------------+
     | operator  |   left moment   |  right moment   | transition strength |
     +-----------+-----------------+-----------------+---------------------+
     | xdiplen   |     -0.11914949 |     -0.11914949 |       0.01419660    |
     | ydiplen   |     -0.04802998 |     -0.04802998 |       0.00230688    |
     | zdiplen   |      0.02551937 |      0.02551937 |       0.00065124    |
     | xdipvel   |     -0.02163501 |      0.02163501 |       0.00046807    |
     | ydipvel   |     -0.00824992 |      0.00824992 |       0.00006806    |
     | zdipvel   |      0.00365847 |     -0.00365847 |       0.00001338    |
     | xangmom   |      0.04317499 |     -0.04317499 |       0.00186408    |
     | yangmom   |     -0.09563466 |      0.09563466 |       0.00914599    |
     | zangmom   |      0.11351146 |     -0.11351146 |       0.01288485    |
     +-----------+-----------------+-----------------+---------------------+
 
       oscillator strength (length gauge)   :      0.00215746
       oscillator strength (velocity gauge) :      0.00194196
       oscillator strength (mixed gauge)    :      0.00204494
 
       rotator strength (length gauge)      :      0.00117290 a.u.
       Rotator strength (length gauge)      :      0.55295453 10^(-40)*erg*cm^3
       rotator strength (velocity gauge)    :      0.00071606 a.u.
       Rotator strength (velocity gauge)    :      0.33758125 10^(-40)*erg*cm^3
 


  +=========================================================================+
  |  Transition                                             model: ADC(2)   |
  |    number, symmetry, multiplicity:    6 a    1                          |
  |    frequency :   0.1951191962 a.u.     5.30946 e.V.     42823.7 rcm     |
  +=========================================================================+

     +-----------+-----------------+-----------------+---------------------+
     | operator  |   left moment   |  right moment   | transition strength |
     +-----------+-----------------+-----------------+---------------------+
     | xdiplen   |     -1.28972220 |     -1.28972220 |       1.66338335    |
     | ydiplen   |     -0.34436319 |     -0.34436319 |       0.11858601    |
     | zdiplen   |      0.04100599 |      0.04100599 |       0.00168149    |
     | xdipvel   |     -0.21736017 |      0.21736017 |       0.04724545    |
     | ydipvel   |     -0.04846943 |      0.04846943 |       0.00234929    |
     | zdipvel   |      0.00564557 |     -0.00564557 |       0.00003187    |
     | xangmom   |     -0.17353370 |      0.17353370 |       0.03011395    |
     | yangmom   |      0.06967662 |     -0.06967662 |       0.00485483    |
     | zangmom   |      0.27886652 |     -0.27886652 |       0.07776653    |
     +-----------+-----------------+-----------------+---------------------+
 
       oscillator strength (length gauge)   :      0.23201635
       oscillator strength (velocity gauge) :      0.16955996
       oscillator strength (mixed gauge)    :      0.19817122
 
       rotator strength (length gauge)      :      0.10562570 a.u.
       Rotator strength (length gauge)      :     49.79655646 10^(-40)*erg*cm^3
       rotator strength (velocity gauge)    :      0.09203730 a.u.
       Rotator strength (velocity gauge)    :     43.39039386 10^(-40)*erg*cm^3
 


  +=========================================================================+
  |  Transition                                             model: ADC(2)   |
  |    number, symmetry, multiplicity:    7 a    1                          |
  |    frequency :   0.2034655397 a.u.     5.53658 e.V.     44655.5 rcm     |
  +=========================================================================+

     +-----------+-----------------+-----------------+---------------------+
     | operator  |   left moment   |  right moment   | transition strength |
     +-----------+-----------------+-----------------+---------------------+
     | xdiplen   |      0.08686375 |      0.08686375 |       0.00754531    |
     | ydiplen   |      0.03170884 |      0.03170884 |       0.00100545    |
     | zdiplen   |     -0.13382441 |     -0.13382441 |       0.01790897    |
     | xdipvel   |      0.01744277 |     -0.01744277 |       0.00030425    |
     | ydipvel   |      0.00275292 |     -0.00275292 |       0.00000758    |
     | zdipvel   |     -0.03798264 |      0.03798264 |       0.00144268    |
     | xangmom   |     -0.35217465 |      0.35217465 |       0.12402698    |
     | yangmom   |     -0.23497706 |      0.23497706 |       0.05521422    |
     | zangmom   |     -0.02741395 |      0.02741395 |       0.00075152    |
     +-----------+-----------------+-----------------+---------------------+
 
       oscillator strength (length gauge)   :      0.00358910
       oscillator strength (velocity gauge) :      0.00574875
       oscillator strength (mixed gauge)    :      0.00445696
 
       rotator strength (length gauge)      :     -0.01718670 a.u.
       Rotator strength (length gauge)      :     -8.10256007 10^(-40)*erg*cm^3
       rotator strength (velocity gauge)    :     -0.01412653 a.u.
       Rotator strength (velocity gauge)    :     -6.65985947 10^(-40)*erg*cm^3
 


  +=========================================================================+
  |  Transition                                             model: ADC(2)   |
  |    number, symmetry, multiplicity:    8 a    1                          |
  |    frequency :   0.2098698218 a.u.     5.71085 e.V.     46061.1 rcm     |
  +=========================================================================+

     +-----------+-----------------+-----------------+---------------------+
     | operator  |   left moment   |  right moment   | transition strength |
     +-----------+-----------------+-----------------+---------------------+
     | xdiplen   |      0.71766185 |      0.71766185 |       0.51503853    |
     | ydiplen   |      0.20958297 |      0.20958297 |       0.04392502    |
     | zdiplen   |     -0.01761587 |     -0.01761587 |       0.00031032    |
     | xdipvel   |      0.14745470 |     -0.14745470 |       0.02174289    |
     | ydipvel   |      0.06125815 |     -0.06125815 |       0.00375256    |
     | zdipvel   |     -0.00428828 |      0.00428828 |       0.00001839    |
     | xangmom   |      0.14730937 |     -0.14730937 |       0.02170005    |
     | yangmom   |      0.05394591 |     -0.05394591 |       0.00291016    |
     | zangmom   |      0.54673431 |     -0.54673431 |       0.29891841    |
     +-----------+-----------------+-----------------+---------------------+
 
       oscillator strength (length gauge)   :      0.07824981
       oscillator strength (velocity gauge) :      0.08104655
       oscillator strength (mixed gauge)    :      0.07915788
 
       rotator strength (length gauge)      :      0.05369663 a.u.
       Rotator strength (length gauge)      :     25.31493109 10^(-40)*erg*cm^3
       rotator strength (velocity gauge)    :      0.05403715 a.u.
       Rotator strength (velocity gauge)    :     25.47546772 10^(-40)*erg*cm^3
 


  +=========================================================================+
  |  Transition                                             model: ADC(2)   |
  |    number, symmetry, multiplicity:    9 a    1                          |
  |    frequency :   0.2183499528 a.u.     5.94160 e.V.     47922.3 rcm     |
  +=========================================================================+

     +-----------+-----------------+-----------------+---------------------+
     | operator  |   left moment   |  right moment   | transition strength |
     +-----------+-----------------+-----------------+---------------------+
     | xdiplen   |      0.54436248 |      0.54436248 |       0.29633051    |
     | ydiplen   |      0.26781975 |      0.26781975 |       0.07172742    |
     | zdiplen   |     -0.20284397 |     -0.20284397 |       0.04114568    |
     | xdipvel   |      0.11566461 |     -0.11566461 |       0.01337830    |
     | ydipvel   |      0.06524784 |     -0.06524784 |       0.00425728    |
     | zdipvel   |     -0.03918055 |      0.03918055 |       0.00153512    |
     | xangmom   |      0.17788793 |     -0.17788793 |       0.03164412    |
     | yangmom   |     -0.13956635 |      0.13956635 |       0.01947877    |
     | zangmom   |      1.59261771 |     -1.59261771 |       2.53643117    |
     +-----------+-----------------+-----------------+---------------------+
 
       oscillator strength (length gauge)   :      0.05956639
       oscillator strength (velocity gauge) :      0.05853203
       oscillator strength (mixed gauge)    :      0.05892378
 
       rotator strength (length gauge)      :     -0.13179800 a.u.
       Rotator strength (length gauge)      :    -62.13531990 10^(-40)*erg*cm^3
       rotator strength (velocity gauge)    :     -0.11662631 a.u.
       Rotator strength (velocity gauge)    :    -54.98272194 10^(-40)*erg*cm^3
 


  +=========================================================================+
  |  Transition                                             model: ADC(2)   |
  |    number, symmetry, multiplicity:   10 a    1                          |
  |    frequency :   0.2204256272 a.u.     5.99809 e.V.     48377.8 rcm     |
  +=========================================================================+

     +-----------+-----------------+-----------------+---------------------+
     | operator  |   left moment   |  right moment   | transition strength |
     +-----------+-----------------+-----------------+---------------------+
     | xdiplen   |      0.77696935 |      0.77696935 |       0.60368136    |
     | ydiplen   |      0.79423026 |      0.79423026 |       0.63080170    |
     | zdiplen   |      0.10738835 |      0.10738835 |       0.01153226    |
     | xdipvel   |      0.17052686 |     -0.17052686 |       0.02907941    |
     | ydipvel   |      0.16551455 |     -0.16551455 |       0.02739507    |
     | zdipvel   |      0.01704763 |     -0.01704763 |       0.00029062    |
     | xangmom   |     -0.27517266 |      0.27517266 |       0.07571999    |
     | yangmom   |      0.34194238 |     -0.34194238 |       0.11692459    |
     | zangmom   |      0.72040279 |     -0.72040279 |       0.51898018    |
     +-----------+-----------------+-----------------+---------------------+
 
       oscillator strength (length gauge)   :      0.18310247
       oscillator strength (velocity gauge) :      0.17168329
       oscillator strength (mixed gauge)    :      0.17718768
 
       rotator strength (length gauge)      :      0.06757157 a.u.
       Rotator strength (length gauge)      :     31.85618056 10^(-40)*erg*cm^3
       rotator strength (velocity gauge)    :      0.04979746 a.u.
       Rotator strength (velocity gauge)    :     23.47668951 10^(-40)*erg*cm^3
 


  +=========================================================================+
  |  Transition                                             model: ADC(2)   |
  |    number, symmetry, multiplicity:   11 a    1                          |
  |    frequency :   0.2244928448 a.u.     6.10876 e.V.     49270.5 rcm     |
  +=========================================================================+

     +-----------+-----------------+-----------------+---------------------+
     | operator  |   left moment   |  right moment   | transition strength |
     +-----------+-----------------+-----------------+---------------------+
     | xdiplen   |     -1.26913675 |     -1.26913675 |       1.61070808    |
     | ydiplen   |      0.27325945 |      0.27325945 |       0.07467072    |
     | zdiplen   |     -0.01433393 |     -0.01433393 |       0.00020546    |
     | xdipvel   |     -0.26117562 |      0.26117562 |       0.06821270    |
     | ydipvel   |      0.05772807 |     -0.05772807 |       0.00333253    |
     | zdipvel   |     -0.00493211 |      0.00493211 |       0.00002433    |
     | xangmom   |     -0.01865712 |      0.01865712 |       0.00034809    |
     | yangmom   |      0.01204789 |     -0.01204789 |       0.00014515    |
     | zangmom   |      0.80512244 |     -0.80512244 |       0.64822214    |
     +-----------+-----------------+-----------------+---------------------+
 
       oscillator strength (length gauge)   :      0.25226774
       oscillator strength (velocity gauge) :      0.21253702
       oscillator strength (mixed gauge)    :      0.23154201
 
       rotator strength (length gauge)      :      0.00771504 a.u.
       Rotator strength (length gauge)      :      3.63720430 10^(-40)*erg*cm^3
       rotator strength (velocity gauge)    :      0.00355764 a.u.
       Rotator strength (velocity gauge)    :      1.67722830 10^(-40)*erg*cm^3
 


  +=========================================================================+
  |  Transition                                             model: ADC(2)   |
  |    number, symmetry, multiplicity:   12 a    1                          |
  |    frequency :   0.2315855241 a.u.     6.30176 e.V.     50827.1 rcm     |
  +=========================================================================+

     +-----------+-----------------+-----------------+---------------------+
     | operator  |   left moment   |  right moment   | transition strength |
     +-----------+-----------------+-----------------+---------------------+
     | xdiplen   |     -0.00740435 |     -0.00740435 |       0.00005482    |
     | ydiplen   |      0.08103326 |      0.08103326 |       0.00656639    |
     | zdiplen   |     -0.04365714 |     -0.04365714 |       0.00190595    |
     | xdipvel   |      0.00108999 |     -0.00108999 |       0.00000119    |
     | ydipvel   |      0.01439582 |     -0.01439582 |       0.00020724    |
     | zdipvel   |     -0.01121444 |      0.01121444 |       0.00012576    |
     | xangmom   |     -0.31805022 |      0.31805022 |       0.10115594    |
     | yangmom   |      0.25181886 |     -0.25181886 |       0.06341274    |
     | zangmom   |      0.18697610 |     -0.18697610 |       0.03496006    |
     +-----------+-----------------+-----------------+---------------------+
 
       oscillator strength (length gauge)   :      0.00131651
       oscillator strength (velocity gauge) :      0.00096204
       oscillator strength (mixed gauge)    :      0.00109871
 
       rotator strength (length gauge)      :      0.00729891 a.u.
       Rotator strength (length gauge)      :      3.44102323 10^(-40)*erg*cm^3
       rotator strength (velocity gauge)    :      0.00255118 a.u.
       Rotator strength (velocity gauge)    :      1.20273881 10^(-40)*erg*cm^3
 


  +=========================================================================+
  |  Transition                                             model: ADC(2)   |
  |    number, symmetry, multiplicity:   13 a    1                          |
  |    frequency :   0.2331768535 a.u.     6.34506 e.V.     51176.4 rcm     |
  +=========================================================================+

     +-----------+-----------------+-----------------+---------------------+
     | operator  |   left moment   |  right moment   | transition strength |
     +-----------+-----------------+-----------------+---------------------+
     | xdiplen   |      0.24634086 |      0.24634086 |       0.06068382    |
     | ydiplen   |     -0.10303157 |     -0.10303157 |       0.01061550    |
     | zdiplen   |     -0.17320587 |     -0.17320587 |       0.03000027    |
     | xdipvel   |      0.04460370 |     -0.04460370 |       0.00198949    |
     | ydipvel   |     -0.01224425 |      0.01224425 |       0.00014992    |
     | zdipvel   |     -0.04093909 |      0.04093909 |       0.00167601    |
     | xangmom   |     -0.06849310 |      0.06849310 |       0.00469130    |
     | yangmom   |     -0.17466457 |      0.17466457 |       0.03050771    |
     | zangmom   |      0.25534924 |     -0.25534924 |       0.06520323    |
     +-----------+-----------------+-----------------+---------------------+
 
       oscillator strength (length gauge)   :      0.01574715
       oscillator strength (velocity gauge) :      0.01090852
       oscillator strength (mixed gauge)    :      0.01289343
 
       rotator strength (length gauge)      :     -0.02155234 a.u.
       Rotator strength (length gauge)      :    -10.16070946 10^(-40)*erg*cm^3
       rotator strength (velocity gauge)    :     -0.02438101 a.u.
       Rotator strength (velocity gauge)    :    -11.49427021 10^(-40)*erg*cm^3
 


  +=========================================================================+
  |  Transition                                             model: ADC(2)   |
  |    number, symmetry, multiplicity:   14 a    1                          |
  |    frequency :   0.2332820998 a.u.     6.34793 e.V.     51199.5 rcm     |
  +=========================================================================+

     +-----------+-----------------+-----------------+---------------------+
     | operator  |   left moment   |  right moment   | transition strength |
     +-----------+-----------------+-----------------+---------------------+
     | xdiplen   |      0.43746396 |      0.43746396 |       0.19137472    |
     | ydiplen   |      0.23631099 |      0.23631099 |       0.05584288    |
     | zdiplen   |     -0.07387411 |     -0.07387411 |       0.00545738    |
     | xdipvel   |      0.08881072 |     -0.08881072 |       0.00788734    |
     | ydipvel   |      0.04862718 |     -0.04862718 |       0.00236460    |
     | zdipvel   |     -0.01221058 |      0.01221058 |       0.00014910    |
     | xangmom   |      0.15099957 |     -0.15099957 |       0.02280087    |
     | yangmom   |     -0.01285957 |      0.01285957 |       0.00016537    |
     | zangmom   |      0.22687669 |     -0.22687669 |       0.05147303    |
     +-----------+-----------------+-----------------+---------------------+
 
       oscillator strength (length gauge)   :      0.03929637
       oscillator strength (velocity gauge) :      0.02972380
       oscillator strength (mixed gauge)    :      0.03416311
 
       rotator strength (length gauge)      :      0.02312885 a.u.
       Rotator strength (length gauge)      :     10.90394657 10^(-40)*erg*cm^3
       rotator strength (velocity gauge)    :      0.02146491 a.u.
       Rotator strength (velocity gauge)    :     10.11949451 10^(-40)*erg*cm^3
 


  +=========================================================================+
  |  Transition                                             model: ADC(2)   |
  |    number, symmetry, multiplicity:   15 a    1                          |
  |    frequency :   0.2354390727 a.u.     6.40662 e.V.     51672.9 rcm     |
  +=========================================================================+

     +-----------+-----------------+-----------------+---------------------+
     | operator  |   left moment   |  right moment   | transition strength |
     +-----------+-----------------+-----------------+---------------------+
     | xdiplen   |      0.17191197 |      0.17191197 |       0.02955373    |
     | ydiplen   |     -0.08975447 |     -0.08975447 |       0.00805586    |
     | zdiplen   |      0.24257536 |      0.24257536 |       0.05884281    |
     | xdipvel   |      0.03767075 |     -0.03767075 |       0.00141909    |
     | ydipvel   |     -0.02007411 |      0.02007411 |       0.00040297    |
     | zdipvel   |      0.05680870 |     -0.05680870 |       0.00322723    |
     | xangmom   |      0.19244401 |     -0.19244401 |       0.03703470    |
     | yangmom   |      0.35830060 |     -0.35830060 |       0.12837932    |
     | zangmom   |     -0.35976791 |      0.35976791 |       0.12943295    |
     +-----------+-----------------+-----------------+---------------------+
 
       oscillator strength (length gauge)   :      0.01513911
       oscillator strength (velocity gauge) :      0.01429749
       oscillator strength (mixed gauge)    :      0.01470546
 
       rotator strength (length gauge)      :     -0.04317324 a.u.
       Rotator strength (length gauge)      :    -20.35374673 10^(-40)*erg*cm^3
       rotator strength (velocity gauge)    :     -0.04328296 a.u.
       Rotator strength (velocity gauge)    :    -20.40547446 10^(-40)*erg*cm^3
 
 Exporting transition densities


    ------------------------------------------------------------------------
         total  cpu-time :   1 days 17 hours 38 minutes and 56 seconds
         total wall-time :   2 days  4 hours  8 minutes and 38 seconds
    ------------------------------------------------------------------------


   ****  ricc2 : all done  ****


    2023-01-25 14:03:53.090 

