 hostname is         dlt01.abaxnet
 this is node-proc. number 0 running on node dlt01.abaxnet
 the total number of node-proc. spawned is   1

 ricc2 (dlt01.abaxnet) : TURBOMOLE V6.6( 19125 ) 27 May 2014 at 14:24:19
 Copyright (C) 2014 TURBOMOLE GmbH, Karlsruhe


    2023-01-19 19:54:26.985 



                              R I C C 2 - PROGRAM

                          the quantum chemistry groups
                             at the universities in
                           Karlsruhe, Bochum & Mainz
                                   Germany



   *-----------------------------------------------------------------------*
   |                     program will use  1 thread(s)                     |
   *-----------------------------------------------------------------------*


              +--------------------------------------------------+
              | Atomic coordinate, charge and isotop information |
              +--------------------------------------------------+

                    atomic coordinates            atom    charge  isotop
         -1.25947766   -2.27731014   -0.03994054    c      6.000     0
         -2.54704257   -0.00000118   -0.03765397    c      6.000     0
         -1.25947766    2.27730778   -0.03995944    c      6.000     0
          1.33938710    2.27589049   -0.04379558    c      6.000     0
          2.68468313   -0.00000118   -0.04421132    c      6.000     0
          1.33940599   -2.27589285   -0.04377669    c      6.000     0
         -2.31447397   -4.02313363   -0.03731382    h      1.000     0
         -2.31447397    4.02313127   -0.03733272    h      1.000     0
          2.35779830    4.04990869   -0.05246943    h      1.000     0
          2.35779830   -4.04989215   -0.05243163    h      1.000     0
         -5.29689645   -0.00000118   -0.02990610    n      7.000     0
         -6.37250966    2.03028278   -0.02659908    o      8.000     0
         -6.37250966   -2.03028514   -0.02665577    o      8.000     0
          5.27340006   -0.00000118   -0.11796733    n      7.000     0
          6.19220381    1.60348813    0.31500672    h      1.000     0
          6.19218491   -1.60349050    0.31500672    h      1.000     0
 
       center of nuclear mass  :   -1.36177858   -0.00000104   -0.03955810
       center of nuclear charge:   -1.22039892   -0.00000092   -0.03481545

              +--------------------------------------------------+
              |               basis set information              |
              +--------------------------------------------------+

              we will work with the 1s 3p 5d 7f 9g ... basis set
              ...i.e. with spherical basis functions...

   type   atoms  prim   cont   basis
   ---------------------------------------------------------------------------
    c        6     52     37   def2-TZVPD   [6s3p3d1f|12s6p3d1f]
    h        6     11      9   def2-TZVPD   [3s2p|5s2p]
    n        2     52     37   def2-TZVPD   [6s3p3d1f|12s6p3d1f]
    o        2     55     40   def2-TZVPD   [6s4p3d1f|12s7p3d1f]
   ---------------------------------------------------------------------------
   total:   16    592    430
   ---------------------------------------------------------------------------

   total number of primitive shells          :   74
   total number of contracted shells         :  162
   total number of cartesian basis functions :  490
   total number of SCF-basis functions       :  430



   =========================================================================


     restricted closed shell calculation for the wavefunction models:
               ADC(2)     - Algebraic Diagrammatic Construction to 2. Order (strict)


     global parameters for ricc2 program:

        hard restart (reuse of interm.) :  disabled
        soft restart (reuse of vectors) :  disabled
        threshold for vector function   :    0.100000E-06
        convergence threshold energy    :    0.100000E-07
        linear dependence threshold     :    0.100000E-13
        global print level              :      1
        maximum number of iterations    :   500
        maximum number DIIS vectors     :    10
        max. dim. of reduced space      :   100
        core memory limit (MB)          :   500
        disk space limit (MB)           :   none


   =========================================================================
     "cartesian on" in $drvopt is ignored by $ricc2

    der. integral neglect threshold  :  0.10E-08
    integral neglect threshold       :  0.68E-12
    integral storage threshold THIZE :  0.10E-04
    integral storage threshold THIME :         5


                  +------------------------------------------+
                  |     Auxiliary basis set information      |
                  +------------------------------------------+

              we will work with the 1s 3p 5d 7f 9g ... basis set
              ...i.e. with spherical basis functions...

   type   atoms  prim   cont   basis
   ---------------------------------------------------------------------------
    c        6     97     92   def2-TZVPD   [9s7p5d4f1g|9s7p6d4f1g]
    h        6     32     24   def2-TZVPD   [5s3p2d|5s4p3d]
    n        2     97     92   def2-TZVPD   [9s7p5d4f1g|9s7p6d4f1g]
    o        2     97     92   def2-TZVPD   [9s7p5d4f1g|9s7p6d4f1g]
   ---------------------------------------------------------------------------
   total:   16   1162   1064
   ---------------------------------------------------------------------------

   total number of primitive shells          :   93
   total number of contracted shells         :  320
   total number of cartesian basis functions : 1306
   total number of SCF-basis functions       : 1064


 symmetry group of the molecule :   c1 

 the group has the following generators :
   c1(z)

    1 symmetry operations found

 there are 1 real representations :   a   

 maximum number of shells which are related by symmetry :  1


 The symmetry information takes   1 MB

*---------------------------------------------------------------------*
|               simplified C1 algorithm will be applied               |
*---------------------------------------------------------------------*
  MOs are in ASCII format !


 reading orbital data $scfmo  from file mos . 

 orbital characterization : scfconv=7
 

         --------------------------------------------------------------
                   checking mo's by calculating trace(D*S)

              number of electrons : 
                 from trace(D*S)         :   72.000000000002
                 from occupation numbers :   72.000000000000

              molecular charge           :    0.000000000000
         --------------------------------------------------------------

 time elapsed for calculating density matrices :   0.022 sec
 all orbitals will be active in the correlation treatment


   Molecular Orbital Statistic:
   ============================

   -----------------------------
   orbitals in total:
   -----------------------------
    frozen occupied :      0
    active occupied :     36
    active virtual  :    394
    frozen virtual  :      0
    all together    :    430
   -----------------------------


     time in riccmos       cpu:  0.21 sec    wall:  0.34 sec    ratio:  0.6

     total memory allocated for calculation of (Q|P)**(-1/2) : 13 MiB


     calculation of (P|Q) ...
     time in lp2sym        cpu:  0.04 sec    wall:  0.04 sec    ratio:  1.0


     calculation of the Cholesky decomposition of (P|Q)**(-1) ...
     time in invmetri      cpu:  0.23 sec    wall:  0.31 sec    ratio:  0.7

   threshold for RMS(d[D]) in SCF was     :  0.10E-07
   integral neglect threshold             :  0.68E-12
   derivative integral neglect threshold  :  0.10E-08


 setting up bound for integral derivative estimation

 increment for numerical differentiation : 0.00050000

   =========================================================================

     Energy of reference wave function is  -489.4031259801000
     Maximum orbital residual is           0.7001026690193E-05


     Number of symmetry-nonredundant auxiliary basis functions:     1064

     Block lengths for integral files:
        frozen occupied (BOI):        0 MiB
        active occupied (BJI):        1 MiB
        active virtual  (BAI):        4 MiB
        frozen virtual  (BGI):        0 MiB
               general  (BTI):        4 MiB

   =========================================================================




   **************************************************************************
   *                                                                        *
   *          OPTIMIZATION OF THE GROUND STATE CLUSTER AMPLITUDES           *
   *                                                                        *
   **************************************************************************


   Iter.   MP2 energy       Norm(Omega)    Norm(t1)  Norm(t2)     cpu    wall
   ...........................................................................
    1   -491.4093481689    0.1619847961     0.00000   0.44705    1.39    1.49
   ...........................................................................


     time in total         cpu:  1 min 23 s  wall:  1 min 30 s  ratio:  0.9


     **********************************************************************
     *                                                                    *
     *   RHF  energy                             :   -489.4031259801      *
     *   MP2 correlation energy                  :     -2.0062221888      *
     *                                                                    *
     *   Final MP2 energy                        :   -491.4093481689      *
     *                                                                    *
     *   Norm of MP1 T2 amplitudes               :      0.4470461353      *
     *                                                                    *
     *   D1 diagnostic                           :      0.0573            *
     *                                                                    *
     **********************************************************************



 **************************************************************
 *                                                            *
 *    OPTIMIZATION OF THE EXCITED STATE CLUSTER AMPLITUDES    *
 *                                                            *
 **************************************************************


  preoptimize excitation energies/vectors using CCS:

  ==================================================


 ======== LINEAR CC RESPONSE SOLVER ========

    threshold for convergence: 0.10E-02
    maximum number of simultaneous jacoby matrix transformations: 15
                                                
     summary of start vectors generation:
     -------------------------------------------
     type of solution vectors      : RE0
     symmetry                      : a  
     number of vectors requested   :    15
     number of vectors generated   :    15
       -- guessed as rhs/(e_a-e_i) :    15
     -------------------------------------------
                                                

    Iter  #Vectors  time (min)    max. residual 
    --------------------------------------------
      1      15         2.82     0.15E+00  (  2)
      2      15         2.87     0.66E-01  (  9)
      3      15         2.83     0.57E-01  (  8)
      4      15         2.84     0.14E+00  ( 13)
      5      15         2.85     0.14E+00  ( 12)
  dimension of red. space became too large.
  try internal restart...
      6      15         2.83     0.77E-01  (  2)
                                                
     summary of start vectors generation:
     -------------------------------------------
     type of solution vectors      : RE0
     symmetry                      : a  
     number of vectors requested   :    15
     number of vectors generated   :    15
       -- restarted from file      :    15
     -------------------------------------------
                                                

    Iter  #Vectors  time (min)    max. residual 
    --------------------------------------------
      7      15         2.81     0.77E-01  (  2)
      8      13         2.50     0.27E-01  (  1)
      9      10         2.03     0.64E-02  (  3)
     10       6         1.19     0.19E-02  (  1)
     11       3         0.66     0.79E-03  ( 10)
    --------------------------------------------
    converged in 11 iterations

         Total time         26.24 minutes


 ===========================================




 Note that this is the intermediate result of a preoptimization!
 The convergence threshold was  0.1E-02 only!


 +==================================================================+
 | sym | multi | state |          CCS excitation energies           |
 |     |       |       +--------------------------------------------+
 |     |       |       |   Hartree    |     eV       |     cm-1     |
 +==================================================================+
 | a   |   1   |   1   |    0.1940656 |      5.28079 |    42592.477 |
 | a   |   1   |   2   |    0.1989681 |      5.41420 |    43668.441 |
 | a   |   1   |   3   |    0.2057667 |      5.59920 |    45160.581 |
 | a   |   1   |   4   |    0.2085256 |      5.67427 |    45766.068 |
 | a   |   1   |   5   |    0.2273005 |      6.18516 |    49886.687 |
 | a   |   1   |   6   |    0.2547934 |      6.93328 |    55920.685 |
 | a   |   1   |   7   |    0.2574938 |      7.00676 |    56513.359 |
 | a   |   1   |   8   |    0.2596147 |      7.06448 |    56978.842 |
 | a   |   1   |   9   |    0.2673849 |      7.27591 |    58684.200 |
 | a   |   1   |  10   |    0.2752989 |      7.49126 |    60421.126 |
 | a   |   1   |  11   |    0.2784916 |      7.57814 |    61121.851 |
 | a   |   1   |  12   |    0.2822648 |      7.68081 |    61949.955 |
 | a   |   1   |  13   |    0.2945913 |      8.01624 |    64655.320 |
 | a   |   1   |  14   |    0.2989551 |      8.13498 |    65613.056 |
 | a   |   1   |  15   |    0.3035244 |      8.25932 |    66615.909 |
 +==================================================================+




  preoptimize ADC(2) excitation energies/vectors using a quasi linear algorithm:
  ==============================================================================


 ======== LINEAR CC RESPONSE SOLVER ========

    threshold for convergence: 0.10E-02
    maximum number of simultaneous jacoby matrix transformations: 15
                                                
     summary of start vectors generation:
     -------------------------------------------
     type of solution vectors      : RE0
     symmetry                      : a  
     number of vectors requested   :    15
     number of vectors generated   :    15
       -- restarted from file      :    15
     -------------------------------------------
                                                

    Iter  #Vectors  time (min)    max. residual 
    --------------------------------------------
 threshold for this macro iteration:  4.907279649877586E-002
      1      15        30.18     0.94E-01  (  1)
 ...adapted threshold to:  6.045833177280485E-002
      2       8        15.30     0.38E-01  ( 10)
                                                
     summary of start vectors generation:
     -------------------------------------------
     type of solution vectors      : RE0
     symmetry                      : a  
     number of vectors requested   :    15
     number of vectors generated   :    15
       -- restarted from file      :    15
     -------------------------------------------
                                                

    Iter  #Vectors  time (min)    max. residual 
    --------------------------------------------
 threshold for this macro iteration:  6.397925900598705E-003
      3      15        28.83     0.37E-01  ( 10)
      4      15        28.64     0.17E-01  (  7)
      5      15        28.79     0.23E-01  ( 15)
      6       5         9.86     0.23E-01  ( 15)
 ...adapted threshold to:  6.931599075235162E-003
      7       2         4.31     0.11E-01  ( 15)
 ...adapted threshold to:  7.160389114807486E-003
      8       1         2.51     0.89E-02  ( 15)
 ...adapted threshold to:  8.098144880391400E-003
      9       1         2.51     0.43E-01  ( 15)
 ...adapted threshold to:  1.496089755316377E-002
     10       1         2.53     0.91E-01  ( 13)
 ...adapted threshold to:  1.496089755317159E-002
     11       1         2.52     0.69E-01  ( 11)
 ...adapted threshold to:  1.947249764390172E-002
     12       1         2.52     0.29E-01  ( 11)
 ...adapted threshold to:  1.999408527954033E-002
     13       1         2.49     0.12E-01  ( 10)
                                                
     summary of start vectors generation:
     -------------------------------------------
     type of solution vectors      : RE0
     symmetry                      : a  
     number of vectors requested   :    15
     number of vectors generated   :    15
       -- restarted from file      :    15
     -------------------------------------------
                                                

    Iter  #Vectors  time (min)    max. residual 
    --------------------------------------------
 threshold for this macro iteration:  6.264674506555934E-003
     14      15        29.17     0.13E-01  ( 11)
     15       1         2.51     0.10E-01  ( 11)
     16       1         2.52     0.46E-02  ( 15)
                                                
     summary of start vectors generation:
     -------------------------------------------
     type of solution vectors      : RE0
     symmetry                      : a  
     number of vectors requested   :    15
     number of vectors generated   :    15
       -- restarted from file      :    15
     -------------------------------------------
                                                

    Iter  #Vectors  time (min)    max. residual 
    --------------------------------------------
 threshold for this macro iteration:  1.258364466924178E-003
     17      15        28.77     0.14E-02  ( 15)
 ...adapted threshold to:  1.258364466975942E-003
     18       1         2.52     0.17E-02  ( 15)
 ...adapted threshold to:  1.258364467006445E-003
     19       1         2.53     0.22E-02  ( 15)
 ...adapted threshold to:  1.258364467020767E-003
     20       1         2.52     0.26E-02  ( 15)
 ...adapted threshold to:  1.258364467040252E-003
     21       1         2.51     0.11E-01  ( 15)
 ...adapted threshold to:  6.693740322627428E-003
     22       2         4.36     0.47E-01  ( 14)
 ...adapted threshold to:  6.716973923677150E-003
     23       1         2.52     0.33E-01  ( 14)
 ...adapted threshold to:  8.561436477686479E-003
     24       1         2.52     0.28E-01  ( 14)
 ...adapted threshold to:  9.483130179714194E-003
     25       1         2.51     0.16E-01  ( 13)
 ...adapted threshold to:  9.483130205558077E-003
     26       1         2.68     0.80E-02  ( 13)
                                                
     summary of start vectors generation:
     -------------------------------------------
     type of solution vectors      : RE0
     symmetry                      : a  
     number of vectors requested   :    15
     number of vectors generated   :    15
       -- restarted from file      :    15
     -------------------------------------------
                                                

    Iter  #Vectors  time (min)    max. residual 
    --------------------------------------------
 threshold for this macro iteration:  4.130052503215631E-003
     27      15        29.29     0.65E-02  ( 14)
     28       1         2.52     0.14E-01  ( 14)
     29       1         2.53     0.12E-01  ( 14)
     30       1         2.54     0.54E-02  ( 14)
     31       1         2.50     0.26E-02  ( 14)
                                                
     summary of start vectors generation:
     -------------------------------------------
     type of solution vectors      : RE0
     symmetry                      : a  
     number of vectors requested   :    15
     number of vectors generated   :    15
       -- restarted from file      :    15
     -------------------------------------------
                                                

    Iter  #Vectors  time (min)    max. residual 
    --------------------------------------------
 threshold for this macro iteration:  1.000000000000000E-003
     32      15        28.83     0.35E-02  ( 14)
     33       1         2.50     0.41E-02  ( 14)
     34       1         2.50     0.31E-02  ( 14)
     35       1         2.53     0.20E-02  ( 14)
     36       1         2.51     0.11E-02  ( 14)
     37       1         2.51     0.82E-03  ( 14)
    --------------------------------------------
    converged in 37 iterations

         Total time        329.42 minutes


 ===========================================




 Note that this is the intermediate result of a preoptimization!
 The convergence threshold was  0.1E-02 only!


 +==================================================================+
 | sym | multi | state |          ADC(2) excitation energies        |
 |     |       |       +--------------------------------------------+
 |     |       |       |   Hartree    |     eV       |     cm-1     |
 +==================================================================+
 | a   |   1   |   1   |    0.1384600 |      3.76769 |    30388.455 |
 | a   |   1   |   2   |    0.1622495 |      4.41503 |    35609.658 |
 | a   |   1   |   3   |    0.1632747 |      4.44293 |    35834.662 |
 | a   |   1   |   4   |    0.1726039 |      4.69679 |    37882.184 |
 | a   |   1   |   5   |    0.2056138 |      5.59504 |    45127.008 |
 | a   |   1   |   6   |    0.2076834 |      5.65135 |    45581.247 |
 | a   |   1   |   7   |    0.2236418 |      6.08560 |    49083.695 |
 | a   |   1   |   8   |    0.2339000 |      6.36474 |    51335.116 |
 | a   |   1   |   9   |    0.2379707 |      6.47551 |    52228.532 |
 | a   |   1   |  10   |    0.2388905 |      6.50054 |    52430.410 |
 | a   |   1   |  11   |    0.2435456 |      6.62721 |    53452.082 |
 | a   |   1   |  12   |    0.2572236 |      6.99941 |    56454.053 |
 | a   |   1   |  13   |    0.2585285 |      7.03492 |    56740.445 |
 | a   |   1   |  14   |    0.2595635 |      7.06308 |    56967.596 |
 | a   |   1   |  15   |    0.2679903 |      7.29239 |    58817.073 |
 +==================================================================+





  solve for ADC(2) excitation energies/vectors using a DIIS algorithm:
  =================================================================
                                                
     summary of start vectors generation:
     -------------------------------------------
     type of solution vectors      : RE0
     symmetry                      : a  
     number of vectors requested   :    15
     number of vectors generated   :    15
       -- restarted from file      :    15
     -------------------------------------------
                                                


 ========= DIIS CC RESPONSE SOLVER =========

    threshold for convergence:0.10E-05
    max. nb. of DIIS vectors :      10
    maximum number of simultaneous jacoby matrix transformations: 15

    Iter  #Vectors  time (min)   residual
    --------------------------------------
      1      15        29.06     0.12E-02  ( 14)    0.10E+01
      2      15        28.91     0.71E-03  ( 14)    0.17E-01
      3      15        28.81     0.46E-03  ( 14)    0.39E-01
      4      15        29.53     0.43E-03  ( 14)    0.11E+00
      5      10        19.54     0.25E-03  ( 14)    0.10E-01
      6      10        19.50     0.22E-03  ( 14)    0.17E-01
      7      10        19.51     0.18E-03  ( 14)    0.26E-02
      8       9        17.37     0.16E-03  ( 14)    0.80E-02
      9       6        11.64     0.93E-04  ( 14)    0.32E-02
     10       5         9.81     0.67E-04  ( 15)    0.13E-02
     11       5         9.88     0.61E-04  ( 15)    0.13E-02
     12       4         8.06     0.56E-04  ( 15)    0.14E-02
     13       3         6.22     0.50E-04  ( 15)    0.12E-02
     14       3         6.34     0.43E-04  ( 15)    0.12E-02
     15       3         6.10     0.39E-04  ( 15)    0.12E-02
     16       3         6.14     0.33E-04  ( 15)    0.12E-02
     17       3         6.06     0.25E-04  ( 15)    0.12E-02
     18       3         6.13     0.14E-04  ( 15)    0.12E-02
     19       2         4.33     0.96E-05  ( 15)    0.12E-02
     20       2         4.32     0.72E-05  ( 15)    0.12E-02
     21       2         4.54     0.58E-05  ( 15)    0.12E-02
     22       2         4.36     0.51E-05  ( 15)    0.12E-02
     23       2         4.28     0.49E-05  ( 15)    0.12E-02
     24       1         2.51     0.47E-05  ( 15)    0.12E-02
     25       1         2.51     0.45E-05  ( 15)    0.12E-02
     26       1         2.51     0.42E-05  ( 15)    0.12E-02
     27       1         2.52     0.36E-05  ( 15)    0.12E-02
     28       1         2.51     0.31E-05  ( 15)    0.12E-02
     29       1         2.51     0.26E-05  ( 15)    0.12E-02
     30       1         2.51     0.22E-05  ( 15)    0.12E-02
     31       1         2.51     0.17E-05  ( 15)    0.12E-02
     32       1         2.51     0.14E-05  ( 15)    0.12E-02
     33       1         2.51     0.83E-06  ( 15)    0.12E-02
    --------------------------------------
    converged in  33 iterations

   Total time        315.58 minutes


 ===========================================





 +================================================================================+
 | sym | multi | state |          ADC(2) excitation energies    |  %t1   |  %t2   |
 |     |       |       +----------------------------------------+--------+--------+
 |     |       |       |   Hartree    |    eV      |    cm-1    |    %   |    %   |
 +================================================================================+
 | a   |   1   |   1   |    0.1384600 |    3.76769 |  30388.455 |  89.73 |  10.27 |
 | a   |   1   |   2   |    0.1622487 |    4.41501 |  35609.484 |  88.31 |  11.69 |
 | a   |   1   |   3   |    0.1632749 |    4.44294 |  35834.703 |  90.14 |   9.86 |
 | a   |   1   |   4   |    0.1726039 |    4.69679 |  37882.182 |  89.84 |  10.16 |
 | a   |   1   |   5   |    0.2056139 |    5.59504 |  45127.028 |  92.05 |   7.95 |
 | a   |   1   |   6   |    0.2076832 |    5.65135 |  45581.189 |  88.79 |  11.21 |
 | a   |   1   |   7   |    0.2236416 |    6.08560 |  49083.657 |  88.76 |  11.24 |
 | a   |   1   |   8   |    0.2338991 |    6.36472 |  51334.920 |  89.91 |  10.09 |
 | a   |   1   |   9   |    0.2379701 |    6.47550 |  52228.394 |  91.67 |   8.33 |
 | a   |   1   |  10   |    0.2388907 |    6.50055 |  52430.449 |  91.30 |   8.70 |
 | a   |   1   |  11   |    0.2435507 |    6.62735 |  53453.203 |  83.53 |  16.47 |
 | a   |   1   |  12   |    0.2572231 |    6.99940 |  56453.948 |  91.53 |   8.47 |
 | a   |   1   |  13   |    0.2585217 |    7.03473 |  56738.958 |  91.34 |   8.66 |
 | a   |   1   |  14   |    0.2595930 |    7.06388 |  56974.079 |  84.36 |  15.64 |
 | a   |   1   |  15   |    0.2679730 |    7.29192 |  58813.284 |  91.80 |   8.20 |
 +================================================================================+


       Energy:     0.1384600 H      3.76769 eV    30388.455 cm-1

     +=======================================================================+
     | type: RE0                    symmetry: a               state:    1    |
     +-----------------------+-----------------------+-----------------------+
     | occ. orb.  index spin | vir. orb.  index spin |  coeff/|amp|     %    |
     +=======================+=======================+=======================+
     |   33 a       33       |   37 a       37       |   0.78811      62.1   |
     |   33 a       33       |   38 a       38       |  -0.43468      18.9   |
     |   33 a       33       |   49 a       49       |   0.32750      10.7   |
     |   33 a       33       |   54 a       54       |  -0.20752       4.3   |
     +=======================+=======================+=======================+
     norm of printed elements:  0.96038


       Energy:     0.1622487 H      4.41501 eV    35609.484 cm-1

     +=======================================================================+
     | type: RE0                    symmetry: a               state:    2    |
     +-----------------------+-----------------------+-----------------------+
     | occ. orb.  index spin | vir. orb.  index spin |  coeff/|amp|     %    |
     +=======================+=======================+=======================+
     |   36 a       36       |   37 a       37       |   0.85104      72.4   |
     |   36 a       36       |   38 a       38       |  -0.44827      20.1   |
     |   35 a       35       |   41 a       41       |  -0.11618       1.3   |
     |   36 a       36       |   49 a       49       |   0.09662       0.9   |
     |   36 a       36       |   46 a       46       |  -0.07749       0.6   |
     +=======================+=======================+=======================+
     norm of printed elements:  0.95406


       Energy:     0.1632749 H      4.44294 eV    35834.703 cm-1

     +=======================================================================+
     | type: RE0                    symmetry: a               state:    3    |
     +-----------------------+-----------------------+-----------------------+
     | occ. orb.  index spin | vir. orb.  index spin |  coeff/|amp|     %    |
     +=======================+=======================+=======================+
     |   31 a       31       |   37 a       37       |   0.78003      60.8   |
     |   31 a       31       |   38 a       38       |  -0.42974      18.5   |
     |   31 a       31       |   49 a       49       |   0.31048       9.6   |
     |   31 a       31       |   54 a       54       |  -0.19340       3.7   |
     |   32 a       32       |   37 a       37       |   0.10082       1.0   |
     |   28 a       28       |   37 a       37       |  -0.09048       0.8   |
     |   31 a       31       |   60 a       60       |   0.08564       0.7   |
     +=======================+=======================+=======================+
     norm of printed elements:  0.95261


       Energy:     0.1726039 H      4.69679 eV    37882.182 cm-1

     +=======================================================================+
     | type: RE0                    symmetry: a               state:    4    |
     +-----------------------+-----------------------+-----------------------+
     | occ. orb.  index spin | vir. orb.  index spin |  coeff/|amp|     %    |
     +=======================+=======================+=======================+
     |   36 a       36       |   41 a       41       |   0.78784      62.1   |
     |   35 a       35       |   37 a       37       |   0.41673      17.4   |
     |   36 a       36       |   42 a       42       |  -0.26944       7.3   |
     |   35 a       35       |   38 a       38       |  -0.21970       4.8   |
     |   35 a       35       |   46 a       46       |  -0.12323       1.5   |
     |   36 a       36       |   55 a       55       |  -0.10946       1.2   |
     |   35 a       35       |   45 a       45       |   0.08587       0.7   |
     |   35 a       35       |   54 a       54       |   0.08351       0.7   |
     +=======================+=======================+=======================+
     norm of printed elements:  0.95673


       Energy:     0.2056139 H      5.59504 eV    45127.028 cm-1

     +=======================================================================+
     | type: RE0                    symmetry: a               state:    5    |
     +-----------------------+-----------------------+-----------------------+
     | occ. orb.  index spin | vir. orb.  index spin |  coeff/|amp|     %    |
     +=======================+=======================+=======================+
     |   36 a       36       |   38 a       38       |   0.80465      64.7   |
     |   36 a       36       |   37 a       37       |   0.42747      18.3   |
     |   32 a       32       |   38 a       38       |   0.18067       3.3   |
     |   36 a       36       |   40 a       40       |  -0.16217       2.6   |
     |   32 a       32       |   37 a       37       |   0.11455       1.3   |
     |   36 a       36       |   65 a       65       |  -0.11277       1.3   |
     |   36 a       36       |   58 a       58       |   0.09703       0.9   |
     |   32 a       32       |   40 a       40       |  -0.09459       0.9   |
     |   36 a       36       |   43 a       43       |  -0.08767       0.8   |
     |   29 a       29       |   38 a       38       |  -0.08341       0.7   |
     |   36 a       36       |   56 a       56       |  -0.07302       0.5   |
     +=======================+=======================+=======================+
     norm of printed elements:  0.95332


       Energy:     0.2076832 H      5.65135 eV    45581.189 cm-1

     +=======================================================================+
     | type: RE0                    symmetry: a               state:    6    |
     +-----------------------+-----------------------+-----------------------+
     | occ. orb.  index spin | vir. orb.  index spin |  coeff/|amp|     %    |
     +=======================+=======================+=======================+
     |   35 a       35       |   37 a       37       |   0.59693      35.6   |
     |   34 a       34       |   37 a       37       |   0.50602      25.6   |
     |   36 a       36       |   41 a       41       |  -0.33612      11.3   |
     |   35 a       35       |   38 a       38       |  -0.31676      10.0   |
     |   34 a       34       |   38 a       38       |  -0.27746       7.7   |
     |   34 a       34       |   49 a       49       |   0.13675       1.9   |
     |   36 a       36       |   42 a       42       |   0.10720       1.1   |
     |   32 a       32       |   41 a       41       |  -0.09125       0.8   |
     |   34 a       34       |   54 a       54       |  -0.08409       0.7   |
     |   35 a       35       |   49 a       49       |   0.07845       0.6   |
     +=======================+=======================+=======================+
     norm of printed elements:  0.95442


       Energy:     0.2236416 H      6.08560 eV    49083.657 cm-1

     +=======================================================================+
     | type: RE0                    symmetry: a               state:    7    |
     +-----------------------+-----------------------+-----------------------+
     | occ. orb.  index spin | vir. orb.  index spin |  coeff/|amp|     %    |
     +=======================+=======================+=======================+
     |   34 a       34       |   37 a       37       |   0.64224      41.2   |
     |   35 a       35       |   37 a       37       |  -0.44596      19.9   |
     |   34 a       34       |   38 a       38       |  -0.35096      12.3   |
     |   36 a       36       |   41 a       41       |   0.28020       7.9   |
     |   35 a       35       |   38 a       38       |   0.22970       5.3   |
     |   32 a       32       |   41 a       41       |   0.16609       2.8   |
     |   34 a       34       |   49 a       49       |   0.15792       2.5   |
     |   34 a       34       |   54 a       54       |  -0.09362       0.9   |
     |   36 a       36       |   42 a       42       |  -0.07720       0.6   |
     |   36 a       36       |   39 a       39       |  -0.06023       0.4   |
     |   34 a       34       |   46 a       46       |   0.05441       0.3   |
     |   32 a       32       |   42 a       42       |  -0.05259       0.3   |
     |   35 a       35       |   49 a       49       |  -0.05253       0.3   |
     |   33 a       33       |   43 a       43       |  -0.05195       0.3   |
     |   36 a       36       |   50 a       50       |  -0.05177       0.3   |
     +=======================+=======================+=======================+
     norm of printed elements:  0.95053


       Energy:     0.2338991 H      6.36472 eV    51334.920 cm-1

     +=======================================================================+
     | type: RE0                    symmetry: a               state:    8    |
     +-----------------------+-----------------------+-----------------------+
     | occ. orb.  index spin | vir. orb.  index spin |  coeff/|amp|     %    |
     +=======================+=======================+=======================+
     |   36 a       36       |   49 a       49       |   0.58605      34.3   |
     |   36 a       36       |   46 a       46       |   0.39771      15.8   |
     |   36 a       36       |   45 a       45       |  -0.32054      10.3   |
     |   36 a       36       |   40 a       40       |   0.28278       8.0   |
     |   36 a       36       |   54 a       54       |  -0.27136       7.4   |
     |   35 a       35       |   41 a       41       |   0.22264       5.0   |
     |   32 a       32       |   37 a       37       |  -0.21706       4.7   |
     |   36 a       36       |   60 a       60       |   0.16554       2.7   |
     |   36 a       36       |   44 a       44       |  -0.13397       1.8   |
     |   32 a       32       |   38 a       38       |   0.10508       1.1   |
     |   36 a       36       |   38 a       38       |   0.10033       1.0   |
     |   35 a       35       |   42 a       42       |  -0.07439       0.6   |
     |   36 a       36       |   63 a       63       |  -0.07278       0.5   |
     |   36 a       36       |   65 a       65       |  -0.06896       0.5   |
     |   36 a       36       |   43 a       43       |   0.05916       0.4   |
     |   36 a       36       |   37 a       37       |   0.05665       0.3   |
     |   29 a       29       |   49 a       49       |  -0.05459       0.3   |
     |   32 a       32       |   49 a       49       |   0.05331       0.3   |
     |   32 a       32       |   45 a       45       |  -0.04853       0.2   |
     |   32 a       32       |   46 a       46       |   0.04778       0.2   |
     +=======================+=======================+=======================+
     norm of printed elements:  0.95387


       Energy:     0.2379701 H      6.47550 eV    52228.394 cm-1

     +=======================================================================+
     | type: RE0                    symmetry: a               state:    9    |
     +-----------------------+-----------------------+-----------------------+
     | occ. orb.  index spin | vir. orb.  index spin |  coeff/|amp|     %    |
     +=======================+=======================+=======================+
     |   36 a       36       |   39 a       39       |   0.90575      82.0   |
     |   36 a       36       |   42 a       42       |  -0.23965       5.7   |
     |   32 a       32       |   39 a       39       |   0.15511       2.4   |
     |   36 a       36       |   66 a       66       |  -0.14576       2.1   |
     |   35 a       35       |   38 a       38       |   0.11420       1.3   |
     |   36 a       36       |   47 a       47       |  -0.08741       0.8   |
     |   32 a       32       |   42 a       42       |  -0.08429       0.7   |
     +=======================+=======================+=======================+
     norm of printed elements:  0.95090


       Energy:     0.2388907 H      6.50055 eV    52430.449 cm-1

     +=======================================================================+
     | type: RE0                    symmetry: a               state:   10    |
     +-----------------------+-----------------------+-----------------------+
     | occ. orb.  index spin | vir. orb.  index spin |  coeff/|amp|     %    |
     +=======================+=======================+=======================+
     |   36 a       36       |   40 a       40       |   0.81751      66.8   |
     |   36 a       36       |   44 a       44       |  -0.28621       8.2   |
     |   36 a       36       |   49 a       49       |  -0.19788       3.9   |
     |   36 a       36       |   46 a       46       |  -0.16432       2.7   |
     |   36 a       36       |   38 a       38       |   0.15586       2.4   |
     |   36 a       36       |   43 a       43       |   0.12974       1.7   |
     |   36 a       36       |   65 a       65       |  -0.11838       1.4   |
     |   32 a       32       |   38 a       38       |  -0.11470       1.3   |
     |   36 a       36       |   54 a       54       |   0.10652       1.1   |
     |   35 a       35       |   41 a       41       |  -0.10362       1.1   |
     |   32 a       32       |   40 a       40       |   0.10064       1.0   |
     |   36 a       36       |   45 a       45       |   0.09305       0.9   |
     |   36 a       36       |   58 a       58       |  -0.08934       0.8   |
     |   36 a       36       |   64 a       64       |  -0.08160       0.7   |
     |   36 a       36       |   69 a       69       |   0.07348       0.5   |
     |   29 a       29       |   40 a       40       |  -0.06854       0.5   |
     +=======================+=======================+=======================+
     norm of printed elements:  0.95030


       Energy:     0.2435507 H      6.62735 eV    53453.203 cm-1

     +=======================================================================+
     | type: RE0                    symmetry: a               state:   11    |
     +-----------------------+-----------------------+-----------------------+
     | occ. orb.  index spin | vir. orb.  index spin |  coeff/|amp|     %    |
     +=======================+=======================+=======================+
     |   33 a       33       |   41 a       41       |   0.92140      84.9   |
     |   33 a       33       |   42 a       42       |  -0.32076      10.3   |
     +=======================+=======================+=======================+
     norm of printed elements:  0.95187


       Energy:     0.2572231 H      6.99940 eV    56453.948 cm-1

     +=======================================================================+
     | type: RE0                    symmetry: a               state:   12    |
     +-----------------------+-----------------------+-----------------------+
     | occ. orb.  index spin | vir. orb.  index spin |  coeff/|amp|     %    |
     +=======================+=======================+=======================+
     |   36 a       36       |   44 a       44       |   0.72113      52.0   |
     |   36 a       36       |   43 a       43       |   0.55809      31.1   |
     |   36 a       36       |   56 a       56       |  -0.19726       3.9   |
     |   36 a       36       |   63 a       63       |  -0.16453       2.7   |
     |   36 a       36       |   67 a       67       |  -0.11232       1.3   |
     |   36 a       36       |   40 a       40       |   0.11170       1.2   |
     |   36 a       36       |   38 a       38       |   0.08015       0.6   |
     |   36 a       36       |   52 a       52       |  -0.07403       0.5   |
     |   36 a       36       |   65 a       65       |   0.07115       0.5   |
     |   35 a       35       |   39 a       39       |   0.06688       0.4   |
     |   32 a       32       |   44 a       44       |   0.06541       0.4   |
     |   32 a       32       |   43 a       43       |   0.06333       0.4   |
     +=======================+=======================+=======================+
     norm of printed elements:  0.95229


       Energy:     0.2585217 H      7.03473 eV    56738.958 cm-1

     +=======================================================================+
     | type: RE0                    symmetry: a               state:   13    |
     +-----------------------+-----------------------+-----------------------+
     | occ. orb.  index spin | vir. orb.  index spin |  coeff/|amp|     %    |
     +=======================+=======================+=======================+
     |   35 a       35       |   41 a       41       |   0.85730      73.5   |
     |   35 a       35       |   42 a       42       |  -0.29032       8.4   |
     |   36 a       36       |   49 a       49       |  -0.15213       2.3   |
     |   34 a       34       |   41 a       41       |   0.14837       2.2   |
     |   35 a       35       |   55 a       55       |  -0.11078       1.2   |
     |   32 a       32       |   37 a       37       |   0.10112       1.0   |
     |   36 a       36       |   46 a       46       |  -0.09996       1.0   |
     |   36 a       36       |   45 a       45       |   0.08735       0.8   |
     |   29 a       29       |   37 a       37       |  -0.08729       0.8   |
     |   36 a       36       |   37 a       37       |   0.08145       0.7   |
     |   35 a       35       |   39 a       39       |  -0.07435       0.6   |
     |   32 a       32       |   49 a       49       |  -0.06890       0.5   |
     |   32 a       32       |   38 a       38       |  -0.06014       0.4   |
     |   35 a       35       |   75 a       75       |  -0.05554       0.3   |
     |   35 a       35       |   61 a       61       |  -0.05332       0.3   |
     |   34 a       34       |   42 a       42       |  -0.05246       0.3   |
     |   36 a       36       |   38 a       38       |  -0.05123       0.3   |
     |   36 a       36       |   83 a       83       |   0.04699       0.2   |
     |   32 a       32       |   46 a       46       |  -0.04629       0.2   |
     |   29 a       29       |   38 a       38       |   0.04520       0.2   |
     +=======================+=======================+=======================+
     norm of printed elements:  0.95037


       Energy:     0.2595930 H      7.06388 eV    56974.079 cm-1

     +=======================================================================+
     | type: RE0                    symmetry: a               state:   14    |
     +-----------------------+-----------------------+-----------------------+
     | occ. orb.  index spin | vir. orb.  index spin |  coeff/|amp|     %    |
     +=======================+=======================+=======================+
     |   31 a       31       |   41 a       41       |   0.91164      83.1   |
     |   31 a       31       |   42 a       42       |  -0.31724      10.1   |
     |   31 a       31       |   55 a       55       |  -0.13611       1.9   |
     +=======================+=======================+=======================+
     norm of printed elements:  0.95025


       Energy:     0.2679730 H      7.29192 eV    58813.284 cm-1

     +=======================================================================+
     | type: RE0                    symmetry: a               state:   15    |
     +-----------------------+-----------------------+-----------------------+
     | occ. orb.  index spin | vir. orb.  index spin |  coeff/|amp|     %    |
     +=======================+=======================+=======================+
     |   35 a       35       |   38 a       38       |   0.81264      66.0   |
     |   35 a       35       |   37 a       37       |   0.42271      17.9   |
     |   35 a       35       |   40 a       40       |   0.22885       5.2   |
     |   35 a       35       |   65 a       65       |  -0.16752       2.8   |
     |   35 a       35       |   44 a       44       |  -0.16677       2.8   |
     |   36 a       36       |   39 a       39       |  -0.09492       0.9   |
     +=======================+=======================+=======================+
     norm of printed elements:  0.95632



     Info: copy ADC(2) right eigenvectors into left eigenvector files.


                    ========   CC DENSITY MODULE   ========

                      current wave-function model: ADC(2)  

  calculating overlap between   15 left and right vector(s)
    density nr.      cpu/min        wall/min    L     R
   ------------------------------------------------------
         1             1.87            1.90    LE0    RE0 
         2             1.86            1.90    LE0    RE0 
         3             1.86            1.89    LE0    RE0 
         4             1.86            1.89    LE0    RE0 
         5             1.86            1.90    LE0    RE0 
         6             1.86            1.89    LE0    RE0 
         7             1.86            1.89    LE0    RE0 
         8             1.86            1.90    LE0    RE0 
         9             1.86            1.89    LE0    RE0 
        10             1.86            1.90    LE0    RE0 
        11             1.86            1.89    LE0    RE0 
        12             1.86            1.90    LE0    RE0 
        13             1.86            1.90    LE0    RE0 
        14             1.86            1.89    LE0    RE0 
        15             1.86            1.89    LE0    RE0 
   ------------------------------------------------------
     time in cc_1den       cpu: 27 min 54 s  wall: 28 min 27 s  ratio:  1.0



     +==========================================================+
     |   contributions of excitation levels to excited states   |
     |     wavefunctions as computed from the <L|R> overlap     |
     +----------------------------------------------------------+
     | sym | multi | state |    E / eV  | % singles | % doubles |
     +==========================================================+
     | a   |   1   |   1   |    3.76769 |   89.73   |   10.27   |
     | a   |   1   |   2   |    4.41501 |   88.31   |   11.69   |
     | a   |   1   |   3   |    4.44294 |   90.14   |    9.86   |
     | a   |   1   |   4   |    4.69679 |   89.84   |   10.16   |
     | a   |   1   |   5   |    5.59504 |   92.05   |    7.95   |
     | a   |   1   |   6   |    5.65135 |   88.79   |   11.21   |
     | a   |   1   |   7   |    6.08560 |   88.76   |   11.24   |
     | a   |   1   |   8   |    6.36472 |   89.91   |   10.09   |
     | a   |   1   |   9   |    6.47550 |   91.67   |    8.33   |
     | a   |   1   |  10   |    6.50055 |   91.30   |    8.70   |
     | a   |   1   |  11   |    6.62735 |   83.53   |   16.47   |
     | a   |   1   |  12   |    6.99940 |   91.53   |    8.47   |
     | a   |   1   |  13   |    7.03473 |   91.34   |    8.66   |
     | a   |   1   |  14   |    7.06388 |   84.36   |   15.64   |
     | a   |   1   |  15   |    7.29192 |   91.80   |    8.20   |
     +==========================================================+



      The semi-canonical algorithm will be used for densities


                    ========   CC DENSITY MODULE   ========

                      current wave-function model: ADC(2)  

  calculating    15 xi densities

   a semicanonical algorithm will be used

    density nr.      cpu/min        wall/min    L     R
   ------------------------------------------------------
         1             3.15            3.27    LE0    R0  
         2             3.19            3.31    LE0    R0  
         3             3.19            3.35    LE0    R0  
         4             3.15            3.27    LE0    R0  
         5             3.15            3.27    LE0    R0  
         6             3.17            3.31    LE0    R0  
         7             3.12            3.25    LE0    R0  
         8             3.13            3.32    LE0    R0  
         9             3.10            3.22    LE0    R0  
        10             3.12            3.24    LE0    R0  
        11             3.18            3.30    LE0    R0  
        12             3.13            3.26    LE0    R0  
        13             3.12            3.25    LE0    R0  
        14             3.15            3.28    LE0    R0  
        15             3.15            3.28    LE0    R0  
   ------------------------------------------------------
     time in cc_1den       cpu: 47 min 12 s  wall: 49 min 11 s  ratio:  1.0


 **************************************************************
 *                                                            *
 *<<<<<<<<<<<<  ONE-PHOTON ABSORPTION STRENGTHS  >>>>>>>>>>>>>*
 *                                                            *
 **************************************************************



  +=========================================================================+
  |  Transition                                             model: ADC(2)   |
  |    number, symmetry, multiplicity:    1 a    1                          |
  |    frequency :   0.1384599902 a.u.     3.76769 e.V.     30388.5 rcm     |
  +=========================================================================+

     +-----------+-----------------+-----------------+---------------------+
     | operator  |   left moment   |  right moment   | transition strength |
     +-----------+-----------------+-----------------+---------------------+
     | xdiplen   |     -0.00003779 |     -0.00003779 |       0.00000000    |
     | ydiplen   |      0.00007334 |      0.00007334 |       0.00000001    |
     | zdiplen   |      0.00000028 |      0.00000028 |       0.00000000    |
     | xdipvel   |     -0.00000547 |      0.00000547 |       0.00000000    |
     | ydipvel   |      0.00001952 |     -0.00001952 |       0.00000000    |
     | zdipvel   |      0.00000007 |     -0.00000007 |       0.00000000    |
     | xangmom   |      0.56458514 |     -0.56458514 |       0.31875638    |
     | yangmom   |      0.00000160 |     -0.00000160 |       0.00000000    |
     | zangmom   |     -0.00139845 |      0.00139845 |       0.00000196    |
     +-----------+-----------------+-----------------+---------------------+
 
       oscillator strength (length gauge)   :      0.00000000
       oscillator strength (velocity gauge) :      0.00000000
       oscillator strength (mixed gauge)    :      0.00000000
 
       rotator strength (length gauge)      :     -0.00001067 a.u.
       Rotator strength (length gauge)      :     -0.00502960 10^(-40)*erg*cm^3
       rotator strength (velocity gauge)    :     -0.00001115 a.u.
       Rotator strength (velocity gauge)    :     -0.00525482 10^(-40)*erg*cm^3
 


  +=========================================================================+
  |  Transition                                             model: ADC(2)   |
  |    number, symmetry, multiplicity:    2 a    1                          |
  |    frequency :   0.1622487491 a.u.     4.41501 e.V.     35609.5 rcm     |
  +=========================================================================+

     +-----------+-----------------+-----------------+---------------------+
     | operator  |   left moment   |  right moment   | transition strength |
     +-----------+-----------------+-----------------+---------------------+
     | xdiplen   |     -2.01673944 |     -2.01673944 |       4.06723798    |
     | ydiplen   |      0.00001269 |      0.00001269 |       0.00000000    |
     | zdiplen   |      0.01746176 |      0.01746176 |       0.00030491    |
     | xdipvel   |     -0.32548985 |      0.32548985 |       0.10594364    |
     | ydipvel   |      0.00000171 |     -0.00000171 |       0.00000000    |
     | zdipvel   |      0.00438250 |     -0.00438250 |       0.00001921    |
     | xangmom   |     -0.00001254 |      0.00001254 |       0.00000000    |
     | yangmom   |     -0.03795585 |      0.03795585 |       0.00144065    |
     | zangmom   |     -0.00004288 |      0.00004288 |       0.00000000    |
     +-----------+-----------------+-----------------+---------------------+
 
       oscillator strength (length gauge)   :      0.43996916
       oscillator strength (velocity gauge) :      0.43539256
       oscillator strength (mixed gauge)    :      0.43766983
 
       rotator strength (length gauge)      :      0.00001203 a.u.
       Rotator strength (length gauge)      :      0.00567142 10^(-40)*erg*cm^3
       rotator strength (velocity gauge)    :      0.00001180 a.u.
       Rotator strength (velocity gauge)    :      0.00556298 10^(-40)*erg*cm^3
 


  +=========================================================================+
  |  Transition                                             model: ADC(2)   |
  |    number, symmetry, multiplicity:    3 a    1                          |
  |    frequency :   0.1632749226 a.u.     4.44294 e.V.     35834.7 rcm     |
  +=========================================================================+

     +-----------+-----------------+-----------------+---------------------+
     | operator  |   left moment   |  right moment   | transition strength |
     +-----------+-----------------+-----------------+---------------------+
     | xdiplen   |      0.04790637 |      0.04790637 |       0.00229502    |
     | ydiplen   |      0.00000206 |      0.00000206 |       0.00000000    |
     | zdiplen   |     -0.06679750 |     -0.06679750 |       0.00446191    |
     | xdipvel   |      0.00780938 |     -0.00780938 |       0.00006099    |
     | ydipvel   |      0.00000068 |     -0.00000068 |       0.00000000    |
     | zdipvel   |     -0.01540389 |      0.01540389 |       0.00023728    |
     | xangmom   |      0.00000175 |     -0.00000175 |       0.00000000    |
     | yangmom   |     -1.12877953 |      1.12877953 |       1.27414323    |
     | zangmom   |     -0.00002968 |      0.00002968 |       0.00000000    |
     +-----------+-----------------+-----------------+---------------------+
 
       oscillator strength (length gauge)   :      0.00073549
       oscillator strength (velocity gauge) :      0.00121785
       oscillator strength (mixed gauge)    :      0.00093537
 
       rotator strength (length gauge)      :     -0.00000013 a.u.
       Rotator strength (length gauge)      :     -0.00006235 10^(-40)*erg*cm^3
       rotator strength (velocity gauge)    :     -0.00000090 a.u.
       Rotator strength (velocity gauge)    :     -0.00042434 10^(-40)*erg*cm^3
 


  +=========================================================================+
  |  Transition                                             model: ADC(2)   |
  |    number, symmetry, multiplicity:    4 a    1                          |
  |    frequency :   0.1726039213 a.u.     4.69679 e.V.     37882.2 rcm     |
  +=========================================================================+

     +-----------+-----------------+-----------------+---------------------+
     | operator  |   left moment   |  right moment   | transition strength |
     +-----------+-----------------+-----------------+---------------------+
     | xdiplen   |     -0.00007085 |     -0.00007085 |       0.00000001    |
     | ydiplen   |     -0.30042648 |     -0.30042648 |       0.09025607    |
     | zdiplen   |      0.00000185 |      0.00000185 |       0.00000000    |
     | xdipvel   |     -0.00001191 |      0.00001191 |       0.00000000    |
     | ydipvel   |     -0.04838087 |      0.04838087 |       0.00234071    |
     | zdipvel   |      0.00000033 |     -0.00000033 |       0.00000000    |
     | xangmom   |      0.01147765 |     -0.01147765 |       0.00013174    |
     | yangmom   |     -0.00000838 |      0.00000838 |       0.00000000    |
     | zangmom   |      0.88548897 |     -0.88548897 |       0.78409072    |
     +-----------+-----------------+-----------------+---------------------+
 
       oscillator strength (length gauge)   :      0.01038570
       oscillator strength (velocity gauge) :      0.00904077
       oscillator strength (mixed gauge)    :      0.00968993
 
       rotator strength (length gauge)      :      0.00000167 a.u.
       Rotator strength (length gauge)      :      0.00078724 10^(-40)*erg*cm^3
       rotator strength (velocity gauge)    :      0.00000161 a.u.
       Rotator strength (velocity gauge)    :      0.00076116 10^(-40)*erg*cm^3
 


  +=========================================================================+
  |  Transition                                             model: ADC(2)   |
  |    number, symmetry, multiplicity:    5 a    1                          |
  |    frequency :   0.2056138675 a.u.     5.59504 e.V.     45127.0 rcm     |
  +=========================================================================+

     +-----------+-----------------+-----------------+---------------------+
     | operator  |   left moment   |  right moment   | transition strength |
     +-----------+-----------------+-----------------+---------------------+
     | xdiplen   |      0.00417273 |      0.00417273 |       0.00001741    |
     | ydiplen   |     -0.00000015 |     -0.00000015 |       0.00000000    |
     | zdiplen   |     -0.08213066 |     -0.08213066 |       0.00674545    |
     | xdipvel   |      0.00189798 |     -0.00189798 |       0.00000360    |
     | ydipvel   |     -0.00000005 |      0.00000005 |       0.00000000    |
     | zdipvel   |     -0.03232486 |      0.03232486 |       0.00104490    |
     | xangmom   |     -0.00000470 |      0.00000470 |       0.00000000    |
     | yangmom   |      0.48820438 |     -0.48820438 |       0.23834351    |
     | zangmom   |      0.00000005 |     -0.00000005 |       0.00000000    |
     +-----------+-----------------+-----------------+---------------------+
 
       oscillator strength (length gauge)   :      0.00092702
       oscillator strength (velocity gauge) :      0.00339957
       oscillator strength (mixed gauge)    :      0.00177519
 
       rotator strength (length gauge)      :     -0.00000005 a.u.
       Rotator strength (length gauge)      :     -0.00002299 10^(-40)*erg*cm^3
       rotator strength (velocity gauge)    :     -0.00000008 a.u.
       Rotator strength (velocity gauge)    :     -0.00003981 10^(-40)*erg*cm^3
 


  +=========================================================================+
  |  Transition                                             model: ADC(2)   |
  |    number, symmetry, multiplicity:    6 a    1                          |
  |    frequency :   0.2076831805 a.u.     5.65135 e.V.     45581.2 rcm     |
  +=========================================================================+

     +-----------+-----------------+-----------------+---------------------+
     | operator  |   left moment   |  right moment   | transition strength |
     +-----------+-----------------+-----------------+---------------------+
     | xdiplen   |      0.00000919 |      0.00000919 |       0.00000000    |
     | ydiplen   |      0.12962591 |      0.12962591 |       0.01680288    |
     | zdiplen   |     -0.00001447 |     -0.00001447 |       0.00000000    |
     | xdipvel   |      0.00000224 |     -0.00000224 |       0.00000000    |
     | ydipvel   |     -0.00937558 |      0.00937558 |       0.00008790    |
     | zdipvel   |     -0.00000317 |      0.00000317 |       0.00000000    |
     | xangmom   |     -0.01181195 |      0.01181195 |       0.00013952    |
     | yangmom   |     -0.00001483 |      0.00001483 |       0.00000000    |
     | zangmom   |      0.82771809 |     -0.82771809 |       0.68511724    |
     +-----------+-----------------+-----------------+---------------------+
 
       oscillator strength (length gauge)   :      0.00232645
       oscillator strength (velocity gauge) :      0.00028217
       oscillator strength (mixed gauge)    :      0.00081021
 
       rotator strength (length gauge)      :     -0.00000701 a.u.
       Rotator strength (length gauge)      :     -0.00330278 10^(-40)*erg*cm^3
       rotator strength (velocity gauge)    :     -0.00000604 a.u.
       Rotator strength (velocity gauge)    :     -0.00284753 10^(-40)*erg*cm^3
 


  +=========================================================================+
  |  Transition                                             model: ADC(2)   |
  |    number, symmetry, multiplicity:    7 a    1                          |
  |    frequency :   0.2236415965 a.u.     6.08560 e.V.     49083.7 rcm     |
  +=========================================================================+

     +-----------+-----------------+-----------------+---------------------+
     | operator  |   left moment   |  right moment   | transition strength |
     +-----------+-----------------+-----------------+---------------------+
     | xdiplen   |      0.00000088 |      0.00000088 |       0.00000000    |
     | ydiplen   |     -1.43845387 |     -1.43845387 |       2.06914954    |
     | zdiplen   |     -0.00000651 |     -0.00000651 |       0.00000000    |
     | xdipvel   |     -0.00000004 |      0.00000004 |       0.00000000    |
     | ydipvel   |     -0.30599504 |      0.30599504 |       0.09363296    |
     | zdipvel   |     -0.00000166 |      0.00000166 |       0.00000000    |
     | xangmom   |     -0.00233463 |      0.00233463 |       0.00000545    |
     | yangmom   |     -0.00000575 |      0.00000575 |       0.00000000    |
     | zangmom   |      1.16889616 |     -1.16889616 |       1.36631824    |
     +-----------+-----------------+-----------------+---------------------+
 
       oscillator strength (length gauge)   :      0.30849860
       oscillator strength (velocity gauge) :      0.27911612
       oscillator strength (mixed gauge)    :      0.29343983
 
       rotator strength (length gauge)      :      0.00000033 a.u.
       Rotator strength (length gauge)      :      0.00015614 10^(-40)*erg*cm^3
       rotator strength (velocity gauge)    :     -0.00000040 a.u.
       Rotator strength (velocity gauge)    :     -0.00018742 10^(-40)*erg*cm^3
 


  +=========================================================================+
  |  Transition                                             model: ADC(2)   |
  |    number, symmetry, multiplicity:    8 a    1                          |
  |    frequency :   0.2338991058 a.u.     6.36472 e.V.     51334.9 rcm     |
  +=========================================================================+

     +-----------+-----------------+-----------------+---------------------+
     | operator  |   left moment   |  right moment   | transition strength |
     +-----------+-----------------+-----------------+---------------------+
     | xdiplen   |      0.10576348 |      0.10576348 |       0.01118591    |
     | ydiplen   |     -0.00000145 |     -0.00000145 |       0.00000000    |
     | zdiplen   |      0.03479683 |      0.03479683 |       0.00121082    |
     | xdipvel   |      0.04785878 |     -0.04785878 |       0.00229046    |
     | ydipvel   |     -0.00000048 |      0.00000048 |       0.00000000    |
     | zdipvel   |      0.00629926 |     -0.00629926 |       0.00003968    |
     | xangmom   |     -0.00000835 |      0.00000835 |       0.00000000    |
     | yangmom   |     -0.08351188 |      0.08351188 |       0.00697423    |
     | zangmom   |      0.00001319 |     -0.00001319 |       0.00000000    |
     +-----------+-----------------+-----------------+---------------------+
 
       oscillator strength (length gauge)   :      0.00193306
       oscillator strength (velocity gauge) :      0.00664145
       oscillator strength (mixed gauge)    :      0.00352060
 
       rotator strength (length gauge)      :     -0.00000015 a.u.
       Rotator strength (length gauge)      :     -0.00007152 10^(-40)*erg*cm^3
       rotator strength (velocity gauge)    :     -0.00000059 a.u.
       Rotator strength (velocity gauge)    :     -0.00027897 10^(-40)*erg*cm^3
 


  +=========================================================================+
  |  Transition                                             model: ADC(2)   |
  |    number, symmetry, multiplicity:    9 a    1                          |
  |    frequency :   0.2379700734 a.u.     6.47550 e.V.     52228.4 rcm     |
  +=========================================================================+

     +-----------+-----------------+-----------------+---------------------+
     | operator  |   left moment   |  right moment   | transition strength |
     +-----------+-----------------+-----------------+---------------------+
     | xdiplen   |     -0.00000152 |     -0.00000152 |       0.00000000    |
     | ydiplen   |     -0.08608653 |     -0.08608653 |       0.00741089    |
     | zdiplen   |     -0.00000009 |     -0.00000009 |       0.00000000    |
     | xdipvel   |      0.00000030 |     -0.00000030 |       0.00000000    |
     | ydipvel   |     -0.01685475 |      0.01685475 |       0.00028408    |
     | zdipvel   |      0.00000011 |     -0.00000011 |       0.00000000    |
     | xangmom   |      0.20304848 |     -0.20304848 |       0.04122868    |
     | yangmom   |     -0.00000754 |      0.00000754 |       0.00000000    |
     | zangmom   |     -0.01361983 |      0.01361983 |       0.00018550    |
     +-----------+-----------------+-----------------+---------------------+
 
       oscillator strength (length gauge)   :      0.00117571
       oscillator strength (velocity gauge) :      0.00079585
       oscillator strength (mixed gauge)    :      0.00096731
 
       rotator strength (length gauge)      :      0.00000017 a.u.
       Rotator strength (length gauge)      :      0.00008037 10^(-40)*erg*cm^3
       rotator strength (velocity gauge)    :      0.00000039 a.u.
       Rotator strength (velocity gauge)    :      0.00018532 10^(-40)*erg*cm^3
 


  +=========================================================================+
  |  Transition                                             model: ADC(2)   |
  |    number, symmetry, multiplicity:   10 a    1                          |
  |    frequency :   0.2388907038 a.u.     6.50055 e.V.     52430.4 rcm     |
  +=========================================================================+

     +-----------+-----------------+-----------------+---------------------+
     | operator  |   left moment   |  right moment   | transition strength |
     +-----------+-----------------+-----------------+---------------------+
     | xdiplen   |      0.00050657 |      0.00050657 |       0.00000026    |
     | ydiplen   |      0.00000399 |      0.00000399 |       0.00000000    |
     | zdiplen   |      0.22880209 |      0.22880209 |       0.05235040    |
     | xdipvel   |     -0.01201707 |      0.01201707 |       0.00014441    |
     | ydipvel   |      0.00000101 |     -0.00000101 |       0.00000000    |
     | zdipvel   |      0.05937768 |     -0.05937768 |       0.00352571    |
     | xangmom   |      0.00000136 |     -0.00000136 |       0.00000000    |
     | yangmom   |     -0.59528473 |      0.59528473 |       0.35436391    |
     | zangmom   |     -0.00000453 |      0.00000453 |       0.00000000    |
     +-----------+-----------------+-----------------+---------------------+
 
       oscillator strength (length gauge)   :      0.00833739
       oscillator strength (velocity gauge) :      0.01024211
       oscillator strength (mixed gauge)    :      0.00905310
 
       rotator strength (length gauge)      :     -0.00000170 a.u.
       Rotator strength (length gauge)      :     -0.00080380 10^(-40)*erg*cm^3
       rotator strength (velocity gauge)    :     -0.00000185 a.u.
       Rotator strength (velocity gauge)    :     -0.00087409 10^(-40)*erg*cm^3
 


  +=========================================================================+
  |  Transition                                             model: ADC(2)   |
  |    number, symmetry, multiplicity:   11 a    1                          |
  |    frequency :   0.2435507145 a.u.     6.62735 e.V.     53453.2 rcm     |
  +=========================================================================+

     +-----------+-----------------+-----------------+---------------------+
     | operator  |   left moment   |  right moment   | transition strength |
     +-----------+-----------------+-----------------+---------------------+
     | xdiplen   |      0.00261507 |      0.00261507 |       0.00000684    |
     | ydiplen   |     -0.00000058 |     -0.00000058 |       0.00000000    |
     | zdiplen   |      0.02275677 |      0.02275677 |       0.00051787    |
     | xdipvel   |      0.00070405 |     -0.00070405 |       0.00000050    |
     | ydipvel   |     -0.00000060 |      0.00000060 |       0.00000000    |
     | zdipvel   |      0.00880954 |     -0.00880954 |       0.00007761    |
     | xangmom   |      0.00000625 |     -0.00000625 |       0.00000000    |
     | yangmom   |      0.08148479 |     -0.08148479 |       0.00663977    |
     | zangmom   |     -0.00001725 |      0.00001725 |       0.00000000    |
     +-----------+-----------------+-----------------+---------------------+
 
       oscillator strength (length gauge)   :      0.00008520
       oscillator strength (velocity gauge) :      0.00021379
       oscillator strength (mixed gauge)    :      0.00013488
 
       rotator strength (length gauge)      :     -0.00000021 a.u.
       Rotator strength (length gauge)      :     -0.00009973 10^(-40)*erg*cm^3
       rotator strength (velocity gauge)    :     -0.00000040 a.u.
       Rotator strength (velocity gauge)    :     -0.00018978 10^(-40)*erg*cm^3
 


  +=========================================================================+
  |  Transition                                             model: ADC(2)   |
  |    number, symmetry, multiplicity:   12 a    1                          |
  |    frequency :   0.2572231152 a.u.     6.99940 e.V.     56453.9 rcm     |
  +=========================================================================+

     +-----------+-----------------+-----------------+---------------------+
     | operator  |   left moment   |  right moment   | transition strength |
     +-----------+-----------------+-----------------+---------------------+
     | xdiplen   |     -0.08810505 |     -0.08810505 |       0.00776250    |
     | ydiplen   |     -0.00000139 |     -0.00000139 |       0.00000000    |
     | zdiplen   |      0.08010122 |      0.08010122 |       0.00641620    |
     | xdipvel   |     -0.01921407 |      0.01921407 |       0.00036918    |
     | ydipvel   |     -0.00000053 |      0.00000053 |       0.00000000    |
     | zdipvel   |      0.02974229 |     -0.02974229 |       0.00088460    |
     | xangmom   |     -0.00000033 |      0.00000033 |       0.00000000    |
     | yangmom   |     -0.09239652 |      0.09239652 |       0.00853712    |
     | zangmom   |      0.00000658 |     -0.00000658 |       0.00000000    |
     +-----------+-----------------+-----------------+---------------------+
 
       oscillator strength (length gauge)   :      0.00243139
       oscillator strength (velocity gauge) :      0.00324954
       oscillator strength (mixed gauge)    :      0.00271683
 
       rotator strength (length gauge)      :      0.00000034 a.u.
       Rotator strength (length gauge)      :      0.00016154 10^(-40)*erg*cm^3
       rotator strength (velocity gauge)    :      0.00000049 a.u.
       Rotator strength (velocity gauge)    :      0.00023039 10^(-40)*erg*cm^3
 


  +=========================================================================+
  |  Transition                                             model: ADC(2)   |
  |    number, symmetry, multiplicity:   13 a    1                          |
  |    frequency :   0.2585217154 a.u.     7.03473 e.V.     56739.0 rcm     |
  +=========================================================================+

     +-----------+-----------------+-----------------+---------------------+
     | operator  |   left moment   |  right moment   | transition strength |
     +-----------+-----------------+-----------------+---------------------+
     | xdiplen   |     -1.87395883 |     -1.87395883 |       3.51172170    |
     | ydiplen   |     -0.00002184 |     -0.00002184 |       0.00000000    |
     | zdiplen   |      0.00803558 |      0.00803558 |       0.00006457    |
     | xdipvel   |     -0.44240597 |      0.44240597 |       0.19572305    |
     | ydipvel   |     -0.00000642 |      0.00000642 |       0.00000000    |
     | zdipvel   |      0.00369086 |     -0.00369086 |       0.00001362    |
     | xangmom   |      0.00000992 |     -0.00000992 |       0.00000000    |
     | yangmom   |     -0.05153069 |      0.05153069 |       0.00265541    |
     | zangmom   |      0.00006400 |     -0.00006400 |       0.00000000    |
     +-----------+-----------------+-----------------+---------------------+
 
       oscillator strength (length gauge)   :      0.60524867
       oscillator strength (velocity gauge) :      0.50475881
       oscillator strength (mixed gauge)    :      0.55272016
 
       rotator strength (length gauge)      :     -0.00000847 a.u.
       Rotator strength (length gauge)      :     -0.00399433 10^(-40)*erg*cm^3
       rotator strength (velocity gauge)    :     -0.00000739 a.u.
       Rotator strength (velocity gauge)    :     -0.00348338 10^(-40)*erg*cm^3
 


  +=========================================================================+
  |  Transition                                             model: ADC(2)   |
  |    number, symmetry, multiplicity:   14 a    1                          |
  |    frequency :   0.2595930067 a.u.     7.06388 e.V.     56974.1 rcm     |
  +=========================================================================+

     +-----------+-----------------+-----------------+---------------------+
     | operator  |   left moment   |  right moment   | transition strength |
     +-----------+-----------------+-----------------+---------------------+
     | xdiplen   |     -0.00029378 |     -0.00029378 |       0.00000009    |
     | ydiplen   |      0.00270185 |      0.00270185 |       0.00000730    |
     | zdiplen   |     -0.00000109 |     -0.00000109 |       0.00000000    |
     | xdipvel   |     -0.00006893 |      0.00006893 |       0.00000000    |
     | ydipvel   |      0.00049764 |     -0.00049764 |       0.00000025    |
     | zdipvel   |     -0.00000012 |      0.00000012 |       0.00000000    |
     | xangmom   |     -0.16207741 |      0.16207741 |       0.02626909    |
     | yangmom   |     -0.00002652 |      0.00002652 |       0.00000000    |
     | zangmom   |      0.00604109 |     -0.00604109 |       0.00003649    |
     +-----------+-----------------+-----------------+---------------------+
 
       oscillator strength (length gauge)   :      0.00000128
       oscillator strength (velocity gauge) :      0.00000065
       oscillator strength (mixed gauge)    :      0.00000091
 
       rotator strength (length gauge)      :      0.00002377 a.u.
       Rotator strength (length gauge)      :      0.01120562 10^(-40)*erg*cm^3
       rotator strength (velocity gauge)    :      0.00002149 a.u.
       Rotator strength (velocity gauge)    :      0.01013233 10^(-40)*erg*cm^3
 


  +=========================================================================+
  |  Transition                                             model: ADC(2)   |
  |    number, symmetry, multiplicity:   15 a    1                          |
  |    frequency :   0.2679730380 a.u.     7.29192 e.V.     58813.3 rcm     |
  +=========================================================================+

     +-----------+-----------------+-----------------+---------------------+
     | operator  |   left moment   |  right moment   | transition strength |
     +-----------+-----------------+-----------------+---------------------+
     | xdiplen   |      0.00000460 |      0.00000460 |       0.00000000    |
     | ydiplen   |      0.07109765 |      0.07109765 |       0.00505488    |
     | zdiplen   |     -0.00000216 |     -0.00000216 |       0.00000000    |
     | xdipvel   |      0.00000014 |     -0.00000014 |       0.00000000    |
     | ydipvel   |      0.01669035 |     -0.01669035 |       0.00027857    |
     | zdipvel   |     -0.00000043 |      0.00000043 |       0.00000000    |
     | xangmom   |      0.76911674 |     -0.76911674 |       0.59154055    |
     | yangmom   |     -0.00001110 |      0.00001110 |       0.00000000    |
     | zangmom   |     -0.01774424 |      0.01774424 |       0.00031486    |
     +-----------+-----------------+-----------------+---------------------+
 
       oscillator strength (length gauge)   :      0.00090305
       oscillator strength (velocity gauge) :      0.00069302
       oscillator strength (mixed gauge)    :      0.00079110
 
       rotator strength (length gauge)      :      0.00000139 a.u.
       Rotator strength (length gauge)      :      0.00065694 10^(-40)*erg*cm^3
       rotator strength (velocity gauge)    :     -0.00000013 a.u.
       Rotator strength (velocity gauge)    :     -0.00005993 10^(-40)*erg*cm^3
 
 Exporting transition densities


    ------------------------------------------------------------------------
         total  cpu-time : 11 hours 23 minutes and 57 seconds
         total wall-time : 12 hours 30 minutes and 41 seconds
    ------------------------------------------------------------------------


   ****  ricc2 : all done  ****


    2023-01-20 08:25:08.462 

