 Entering Gaussian System, Link 0=g09
 Initial command:
 /apps/software//g09/l1.exe /scratch/matheusmaximo/48667.cluster.abaxnet/Gau-7334.inp -scrdir=/scratch/matheusmaximo/48667.cluster.abaxnet/
 Entering Link 1 = /apps/software//g09/l1.exe PID=      7335.
  
 Copyright (c) 1988,1990,1992,1993,1995,1998,2003,2009, Gaussian, Inc.
                  All Rights Reserved.
  
 This is part of the Gaussian(R) 09 program.  It is based on
 the Gaussian(R) 03 system (copyright 2003, Gaussian, Inc.),
 the Gaussian(R) 98 system (copyright 1998, Gaussian, Inc.),
 the Gaussian(R) 94 system (copyright 1995, Gaussian, Inc.),
 the Gaussian 92(TM) system (copyright 1992, Gaussian, Inc.),
 the Gaussian 90(TM) system (copyright 1990, Gaussian, Inc.),
 the Gaussian 88(TM) system (copyright 1988, Gaussian, Inc.),
 the Gaussian 86(TM) system (copyright 1986, Carnegie Mellon
 University), and the Gaussian 82(TM) system (copyright 1983,
 Carnegie Mellon University). Gaussian is a federally registered
 trademark of Gaussian, Inc.
  
 This software contains proprietary and confidential information,
 including trade secrets, belonging to Gaussian, Inc.
  
 This software is provided under written license and may be
 used, copied, transmitted, or stored only in accord with that
 written license.
  
 The following legend is applicable only to US Government
 contracts under FAR:
  
                    RESTRICTED RIGHTS LEGEND
  
 Use, reproduction and disclosure by the US Government is
 subject to restrictions as set forth in subparagraphs (a)
 and (c) of the Commercial Computer Software - Restricted
 Rights clause in FAR 52.227-19.
  
 Gaussian, Inc.
 340 Quinnipiac St., Bldg. 40, Wallingford CT 06492
  
  
 ---------------------------------------------------------------
 Warning -- This program may not be used in any manner that
 competes with the business of Gaussian, Inc. or will provide
 assistance to any competitor of Gaussian, Inc.  The licensee
 of this program is prohibited from giving any competitor of
 Gaussian, Inc. access to this program.  By using this program,
 the user acknowledges that Gaussian, Inc. is engaged in the
 business of creating and licensing software in the field of
 computational chemistry and represents and warrants to the
 licensee that it is not a competitor of Gaussian, Inc. and that
 it will not use this program in any manner prohibited above.
 ---------------------------------------------------------------
  

 Cite this work as:
 Gaussian 09, Revision A.02,
 M. J. Frisch, G. W. Trucks, H. B. Schlegel, G. E. Scuseria, 
 M. A. Robb, J. R. Cheeseman, G. Scalmani, V. Barone, B. Mennucci, 
 G. A. Petersson, H. Nakatsuji, M. Caricato, X. Li, H. P. Hratchian, 
 A. F. Izmaylov, J. Bloino, G. Zheng, J. L. Sonnenberg, M. Hada, 
 M. Ehara, K. Toyota, R. Fukuda, J. Hasegawa, M. Ishida, T. Nakajima, 
 Y. Honda, O. Kitao, H. Nakai, T. Vreven, J. A. Montgomery, Jr., 
 J. E. Peralta, F. Ogliaro, M. Bearpark, J. J. Heyd, E. Brothers, 
 K. N. Kudin, V. N. Staroverov, R. Kobayashi, J. Normand, 
 K. Raghavachari, A. Rendell, J. C. Burant, S. S. Iyengar, J. Tomasi, 
 M. Cossi, N. Rega, J. M. Millam, M. Klene, J. E. Knox, J. B. Cross, 
 V. Bakken, C. Adamo, J. Jaramillo, R. Gomperts, R. E. Stratmann, 
 O. Yazyev, A. J. Austin, R. Cammi, C. Pomelli, J. W. Ochterski, 
 R. L. Martin, K. Morokuma, V. G. Zakrzewski, G. A. Voth, 
 P. Salvador, J. J. Dannenberg, S. Dapprich, A. D. Daniels, 
 O. Farkas, J. B. Foresman, J. V. Ortiz, J. Cioslowski, 
 and D. J. Fox, Gaussian, Inc., Wallingford CT, 2009.
 
 ******************************************
 Gaussian 09:  EM64L-G09RevA.02 11-Jun-2009
                 7-Jan-2023 
 ******************************************
 %chk=/home/matheusmaximo/Gaussian/subst/C6H5/c6h5_s0.chk
 ---------------------------------------------------
 # opt=tight freq cam-b3lyp/gen scf=qc int=ultrafine
 ---------------------------------------------------
 1/7=10,14=-1,18=20,19=15,26=3,38=1/1,3;
 2/9=110,12=2,17=6,18=5,40=1/2;
 3/5=7,11=2,16=1,25=1,30=1,71=1,74=-40,75=-5/1,2,3;
 4//1;
 5/5=2,8=3,38=5/8;
 6/7=2,8=2,9=2,10=2,28=1/1;
 7//1,2,3,16;
 1/7=10,14=-1,18=20,19=15/3(2);
 2/9=110/2;
 99//99;
 2/9=110/2;
 3/5=7,6=1,11=2,16=1,25=1,30=1,71=1,74=-40,75=-5,82=7/1,2,3;
 4/5=5,16=3/1;
 5/5=2,8=3,38=5/8;
 7//1,2,3,16;
 1/7=10,14=-1,18=20,19=15/3(-5);
 2/9=110/2;
 6/7=2,8=2,9=2,10=2,19=2,28=1/1;
 99/9=1/99;
 ----------------------------
 NA+C6H5 CAM-B3LYP def2-TZVPD
 ----------------------------
 Symbolic Z-matrix:
 Charge =  0 Multiplicity = 1
 C                    -0.88009   0.4023    0.01553 
 C                     0.43619   0.82078  -0.02221 
 C                     0.75689   2.15775  -0.17539 
 C                    -0.25867   3.0742   -0.29681 
 C                    -1.59997   2.67789  -0.26477 
 C                    -1.91211   1.3141   -0.09658 
 H                    -1.09457  -0.64787   0.14438 
 H                     1.7926    2.45914  -0.20024 
 H                    -0.02326   4.12302  -0.42364 
 N                     1.5016   -0.16184   0.10284 
 O                     2.64914   0.23845   0.0699 
 O                     1.18922  -1.32985   0.23151 
 N                    -2.5873    3.62082  -0.38091 
 H                    -2.33495   4.51868  -0.75361 
 H                    -3.5198    3.3096   -0.59107 
 C                    -3.31721   0.84059  -0.06694 
 C                    -3.74856  -0.12689  -0.96885 
 C                    -4.22339   1.33004   0.87025 
 C                    -5.05085  -0.59405  -0.93609 
 H                    -3.05436  -0.5113   -1.70466 
 C                    -5.52526   0.86174   0.90422 
 H                    -3.8979    2.0701    1.58956 
 C                    -5.94381  -0.09956  -0.00075 
 H                    -5.36907  -1.34539  -1.64629 
 H                    -6.21339   1.24431   1.64615 
 H                    -6.9615   -0.46485   0.02575 
 

 GradGradGradGradGradGradGradGradGradGradGradGradGradGradGradGradGradGrad
 Berny optimization.
 Initialization pass.
                           ----------------------------
                           !    Initial Parameters    !
                           ! (Angstroms and Degrees)  !
 --------------------------                            --------------------------
 ! Name  Definition              Value          Derivative Info.                !
 --------------------------------------------------------------------------------
 ! R1    R(1,2)                  1.3817         estimate D2E/DX2                !
 ! R2    R(1,6)                  1.3817         estimate D2E/DX2                !
 ! R3    R(1,7)                  1.0796         estimate D2E/DX2                !
 ! R4    R(2,3)                  1.3834         estimate D2E/DX2                !
 ! R5    R(2,10)                 1.4548         estimate D2E/DX2                !
 ! R6    R(3,4)                  1.3733         estimate D2E/DX2                !
 ! R7    R(3,8)                  1.079          estimate D2E/DX2                !
 ! R8    R(4,5)                  1.399          estimate D2E/DX2                !
 ! R9    R(4,9)                  1.0824         estimate D2E/DX2                !
 ! R10   R(5,6)                  1.4091         estimate D2E/DX2                !
 ! R11   R(5,13)                 1.3702         estimate D2E/DX2                !
 ! R12   R(6,16)                 1.483          estimate D2E/DX2                !
 ! R13   R(10,11)                1.2158         estimate D2E/DX2                !
 ! R14   R(10,12)                1.2159         estimate D2E/DX2                !
 ! R15   R(13,14)                1.0044         estimate D2E/DX2                !
 ! R16   R(13,15)                1.0053         estimate D2E/DX2                !
 ! R17   R(16,17)                1.3912         estimate D2E/DX2                !
 ! R18   R(16,18)                1.3925         estimate D2E/DX2                !
 ! R19   R(17,19)                1.3839         estimate D2E/DX2                !
 ! R20   R(17,20)                1.0822         estimate D2E/DX2                !
 ! R21   R(18,21)                1.384          estimate D2E/DX2                !
 ! R22   R(18,22)                1.0821         estimate D2E/DX2                !
 ! R23   R(19,23)                1.3845         estimate D2E/DX2                !
 ! R24   R(19,24)                1.0817         estimate D2E/DX2                !
 ! R25   R(21,23)                1.385          estimate D2E/DX2                !
 ! R26   R(21,25)                1.0818         estimate D2E/DX2                !
 ! R27   R(23,26)                1.0816         estimate D2E/DX2                !
 ! A1    A(2,1,6)              120.6288         estimate D2E/DX2                !
 ! A2    A(2,1,7)              119.1539         estimate D2E/DX2                !
 ! A3    A(6,1,7)              120.2142         estimate D2E/DX2                !
 ! A4    A(1,2,3)              121.1027         estimate D2E/DX2                !
 ! A5    A(1,2,10)             119.3904         estimate D2E/DX2                !
 ! A6    A(3,2,10)             119.5069         estimate D2E/DX2                !
 ! A7    A(2,3,4)              118.9006         estimate D2E/DX2                !
 ! A8    A(2,3,8)              119.6721         estimate D2E/DX2                !
 ! A9    A(4,3,8)              121.427          estimate D2E/DX2                !
 ! A10   A(3,4,5)              121.1938         estimate D2E/DX2                !
 ! A11   A(3,4,9)              119.7471         estimate D2E/DX2                !
 ! A12   A(5,4,9)              119.0588         estimate D2E/DX2                !
 ! A13   A(4,5,6)              119.293          estimate D2E/DX2                !
 ! A14   A(4,5,13)             119.6023         estimate D2E/DX2                !
 ! A15   A(6,5,13)             121.1001         estimate D2E/DX2                !
 ! A16   A(1,6,5)              118.8764         estimate D2E/DX2                !
 ! A17   A(1,6,16)             119.6938         estimate D2E/DX2                !
 ! A18   A(5,6,16)             121.417          estimate D2E/DX2                !
 ! A19   A(2,10,11)            117.8096         estimate D2E/DX2                !
 ! A20   A(2,10,12)            118.0213         estimate D2E/DX2                !
 ! A21   A(11,10,12)           124.1691         estimate D2E/DX2                !
 ! A22   A(5,13,14)            117.7494         estimate D2E/DX2                !
 ! A23   A(5,13,15)            118.2347         estimate D2E/DX2                !
 ! A24   A(14,13,15)           115.6104         estimate D2E/DX2                !
 ! A25   A(6,16,17)            120.1877         estimate D2E/DX2                !
 ! A26   A(6,16,18)            121.1839         estimate D2E/DX2                !
 ! A27   A(17,16,18)           118.6184         estimate D2E/DX2                !
 ! A28   A(16,17,19)           120.7412         estimate D2E/DX2                !
 ! A29   A(16,17,20)           119.2698         estimate D2E/DX2                !
 ! A30   A(19,17,20)           119.9885         estimate D2E/DX2                !
 ! A31   A(16,18,21)           120.6467         estimate D2E/DX2                !
 ! A32   A(16,18,22)           119.4727         estimate D2E/DX2                !
 ! A33   A(21,18,22)           119.8703         estimate D2E/DX2                !
 ! A34   A(17,19,23)           120.1563         estimate D2E/DX2                !
 ! A35   A(17,19,24)           119.7186         estimate D2E/DX2                !
 ! A36   A(23,19,24)           120.1249         estimate D2E/DX2                !
 ! A37   A(18,21,23)           120.2051         estimate D2E/DX2                !
 ! A38   A(18,21,25)           119.7046         estimate D2E/DX2                !
 ! A39   A(23,21,25)           120.0886         estimate D2E/DX2                !
 ! A40   A(19,23,21)           119.6316         estimate D2E/DX2                !
 ! A41   A(19,23,26)           120.1855         estimate D2E/DX2                !
 ! A42   A(21,23,26)           120.1824         estimate D2E/DX2                !
 ! D1    D(6,1,2,3)             -0.1361         estimate D2E/DX2                !
 ! D2    D(6,1,2,10)           179.7945         estimate D2E/DX2                !
 ! D3    D(7,1,2,3)           -179.5047         estimate D2E/DX2                !
 ! D4    D(7,1,2,10)             0.4259         estimate D2E/DX2                !
 ! D5    D(2,1,6,5)              0.6785         estimate D2E/DX2                !
 ! D6    D(2,1,6,16)           179.3941         estimate D2E/DX2                !
 ! D7    D(7,1,6,5)           -179.9597         estimate D2E/DX2                !
 ! D8    D(7,1,6,16)            -1.2441         estimate D2E/DX2                !
 ! D9    D(1,2,3,4)             -0.2867         estimate D2E/DX2                !
 ! D10   D(1,2,3,8)            179.9028         estimate D2E/DX2                !
 ! D11   D(10,2,3,4)           179.7828         estimate D2E/DX2                !
 ! D12   D(10,2,3,8)            -0.0277         estimate D2E/DX2                !
 ! D13   D(1,2,10,11)         -179.7805         estimate D2E/DX2                !
 ! D14   D(1,2,10,12)            0.325          estimate D2E/DX2                !
 ! D15   D(3,2,10,11)            0.1512         estimate D2E/DX2                !
 ! D16   D(3,2,10,12)         -179.7433         estimate D2E/DX2                !
 ! D17   D(2,3,4,5)              0.1523         estimate D2E/DX2                !
 ! D18   D(2,3,4,9)           -179.6099         estimate D2E/DX2                !
 ! D19   D(8,3,4,5)            179.9593         estimate D2E/DX2                !
 ! D20   D(8,3,4,9)              0.1971         estimate D2E/DX2                !
 ! D21   D(3,4,5,6)              0.3913         estimate D2E/DX2                !
 ! D22   D(3,4,5,13)           179.612          estimate D2E/DX2                !
 ! D23   D(9,4,5,6)           -179.8449         estimate D2E/DX2                !
 ! D24   D(9,4,5,13)            -0.6242         estimate D2E/DX2                !
 ! D25   D(4,5,6,1)             -0.7998         estimate D2E/DX2                !
 ! D26   D(4,5,6,16)          -179.4924         estimate D2E/DX2                !
 ! D27   D(13,5,6,1)           179.9914         estimate D2E/DX2                !
 ! D28   D(13,5,6,16)            1.2988         estimate D2E/DX2                !
 ! D29   D(4,5,13,14)           17.8018         estimate D2E/DX2                !
 ! D30   D(4,5,13,15)          164.6155         estimate D2E/DX2                !
 ! D31   D(6,5,13,14)         -162.9919         estimate D2E/DX2                !
 ! D32   D(6,5,13,15)          -16.1782         estimate D2E/DX2                !
 ! D33   D(1,6,16,17)          -55.638          estimate D2E/DX2                !
 ! D34   D(1,6,16,18)          123.1994         estimate D2E/DX2                !
 ! D35   D(5,6,16,17)          123.0441         estimate D2E/DX2                !
 ! D36   D(5,6,16,18)          -58.1186         estimate D2E/DX2                !
 ! D37   D(6,16,17,19)         178.8565         estimate D2E/DX2                !
 ! D38   D(6,16,17,20)          -1.4141         estimate D2E/DX2                !
 ! D39   D(18,16,17,19)         -0.0104         estimate D2E/DX2                !
 ! D40   D(18,16,17,20)        179.7191         estimate D2E/DX2                !
 ! D41   D(6,16,18,21)        -178.7624         estimate D2E/DX2                !
 ! D42   D(6,16,18,22)           0.0749         estimate D2E/DX2                !
 ! D43   D(17,16,18,21)          0.0927         estimate D2E/DX2                !
 ! D44   D(17,16,18,22)        178.9301         estimate D2E/DX2                !
 ! D45   D(16,17,19,23)          0.0676         estimate D2E/DX2                !
 ! D46   D(16,17,19,24)        179.8984         estimate D2E/DX2                !
 ! D47   D(20,17,19,23)       -179.6599         estimate D2E/DX2                !
 ! D48   D(20,17,19,24)          0.1708         estimate D2E/DX2                !
 ! D49   D(16,18,21,23)         -0.2327         estimate D2E/DX2                !
 ! D50   D(16,18,21,25)        179.2958         estimate D2E/DX2                !
 ! D51   D(22,18,21,23)       -179.0654         estimate D2E/DX2                !
 ! D52   D(22,18,21,25)          0.463          estimate D2E/DX2                !
 ! D53   D(17,19,23,21)         -0.2053         estimate D2E/DX2                !
 ! D54   D(17,19,23,26)       -179.9545         estimate D2E/DX2                !
 ! D55   D(24,19,23,21)        179.9647         estimate D2E/DX2                !
 ! D56   D(24,19,23,26)          0.2155         estimate D2E/DX2                !
 ! D57   D(18,21,23,19)          0.2873         estimate D2E/DX2                !
 ! D58   D(18,21,23,26)       -179.9635         estimate D2E/DX2                !
 ! D59   D(25,21,23,19)       -179.2393         estimate D2E/DX2                !
 ! D60   D(25,21,23,26)          0.5099         estimate D2E/DX2                !
 --------------------------------------------------------------------------------
 Trust Radius=3.00D-01 FncErr=1.00D-07 GrdErr=1.00D-06
 Number of steps in this run= 139 maximum allowed number of steps= 156.
 GradGradGradGradGradGradGradGradGradGradGradGradGradGradGradGradGradGrad

                          Input orientation:                          
 ---------------------------------------------------------------------
 Center     Atomic      Atomic             Coordinates (Angstroms)
 Number     Number       Type             X           Y           Z
 ---------------------------------------------------------------------
      1          6           0       -0.880085    0.402299    0.015535
      2          6           0        0.436188    0.820782   -0.022210
      3          6           0        0.756889    2.157754   -0.175391
      4          6           0       -0.258667    3.074204   -0.296814
      5          6           0       -1.599975    2.677894   -0.264770
      6          6           0       -1.912111    1.314095   -0.096583
      7          1           0       -1.094574   -0.647870    0.144376
      8          1           0        1.792603    2.459143   -0.200237
      9          1           0       -0.023263    4.123018   -0.423638
     10          7           0        1.501603   -0.161845    0.102836
     11          8           0        2.649143    0.238446    0.069903
     12          8           0        1.189219   -1.329854    0.231506
     13          7           0       -2.587299    3.620817   -0.380914
     14          1           0       -2.334945    4.518683   -0.753612
     15          1           0       -3.519804    3.309596   -0.591072
     16          6           0       -3.317211    0.840591   -0.066943
     17          6           0       -3.748564   -0.126888   -0.968848
     18          6           0       -4.223392    1.330041    0.870252
     19          6           0       -5.050848   -0.594048   -0.936091
     20          1           0       -3.054364   -0.511299   -1.704663
     21          6           0       -5.525262    0.861739    0.904223
     22          1           0       -3.897901    2.070099    1.589562
     23          6           0       -5.943813   -0.099557   -0.000754
     24          1           0       -5.369069   -1.345388   -1.646289
     25          1           0       -6.213393    1.244310    1.646150
     26          1           0       -6.961498   -0.464855    0.025746
 ---------------------------------------------------------------------
                    Distance matrix (angstroms):
                    1          2          3          4          5
     1  C    0.000000
     2  C    1.381712   0.000000
     3  C    2.407854   1.383404   0.000000
     4  C    2.760942   2.374056   1.373310   0.000000
     5  C    2.403153   2.766525   2.415232   1.398998   0.000000
     6  C    1.381673   2.400708   2.800274   2.423212   1.409136
     7  H    1.079564   2.127891   3.376639   3.840211   3.388737
     8  H    3.379412   2.134428   1.078960   2.143673   3.400235
     9  H    3.843276   3.358125   2.128974   1.082363   2.144678
    10  N    2.449147   1.454752   2.452049   3.705440   4.221261
    11  O    3.533449   2.290147   2.706388   4.078158   4.911000
    12  O    2.707216   2.292741   3.537779   4.665964   4.907947
    13  N    3.664779   4.136464   3.656007   2.393404   1.370182
    14  H    4.433150   4.678525   3.932908   2.570236   2.041482
    15  H    3.973470   4.708255   4.448554   3.282836   2.047257
    16  C    2.477596   3.753718   4.283103   3.794280   2.522642
    17  C    3.078510   4.393900   5.113538   4.783096   3.602634
    18  C    3.573366   4.771532   5.155742   4.485888   3.160269
    19  C    4.392443   5.739728   6.471544   6.068752   4.802583
    20  H    2.919115   4.097444   4.897772   4.759601   3.789393
    21  C    4.751686   6.033146   6.504664   5.837339   4.480273
    22  H    3.790294   4.789878   4.978937   4.220269   3.014702
    23  C    5.088562   6.446076   7.072861   6.517768   5.162642
    24  H    5.095786   6.405539   7.208530   6.889854   5.683437
    25  H    5.640218   6.868750   7.262040   6.525518   5.195229
    26  H    6.142934   7.508723   8.154265   7.586628   6.221511
                    6          7          8          9         10
     6  C    0.000000
     7  H    2.139097   0.000000
     8  H    3.879019   4.255359   0.000000
     9  H    3.400700   4.922572   2.473006   0.000000
    10  N    3.724462   2.641606   2.654451   4.578476   0.000000
    11  O    4.689327   3.847925   2.395441   4.740806   1.215798
    12  O    4.088565   2.385038   3.860955   5.624335   1.215888
    13  N    2.420265   4.552564   4.534938   2.613104   5.591213
    14  H    3.298463   5.388707   4.645921   2.368398   6.112278
    15  H    2.609831   4.699378   5.394227   3.593812   6.143854
    16  C    1.483034   2.683335   5.361686   4.663867   4.924904
    17  C    2.491955   2.924782   6.163023   5.677749   5.358544
    18  C    2.505402   3.772072   6.213937   5.207298   5.965754
    19  C    3.767950   4.101513   7.529693   6.913026   6.648367
    20  H    2.687514   2.697846   5.880469   5.683793   4.913859
    21  C    3.776387   4.742076   7.571175   6.532316   7.146103
    22  H    2.712561   4.163479   5.978008   4.824963   6.028812
    23  C    4.273431   4.882297   8.151004   7.284359   7.446398
    24  H    4.628714   4.686610   8.237418   7.744416   7.187930
    25  H    4.641445   5.660210   8.305476   7.133631   7.992513
    26  H    5.354992   5.870976   9.232287   8.330044   8.468875
                   11         12         13         14         15
    11  O    0.000000
    12  O    2.148734   0.000000
    13  N    6.250120   6.256699   0.000000
    14  H    6.621159   6.898954   1.004365   0.000000
    15  H    6.922771   6.661533   1.005281   1.700647   0.000000
    16  C    5.998224   5.010770   2.891540   3.868426   2.532142
    17  C    6.491775   5.222038   3.967304   4.860656   3.464747
    18  C    7.004561   6.064602   3.080563   4.046060   2.559129
    19  C    7.809925   6.390863   4.913489   5.792188   4.207323
    20  H    6.020067   4.735693   4.364040   5.169408   4.006989
    21  C    8.240479   7.095061   4.230333   5.128331   3.499968
    22  H    6.966212   6.267598   2.829342   3.732139   2.536627
    23  C    8.599892   7.242080   5.025126   5.909219   4.224527
    24  H    8.351381   6.821840   5.831175   6.662590   5.118802
    25  H    9.057642   7.964057   4.785951   5.614511   4.065217
    26  H    9.636442   8.199071   5.999309   6.844563   5.145115
                   16         17         18         19         20
    16  C    0.000000
    17  C    1.391228   0.000000
    18  C    1.392501   2.393825   0.000000
    19  C    2.412282   1.383927   2.765805   0.000000
    20  H    2.139818   1.082178   3.374515   2.140910   0.000000
    21  C    2.412281   2.764496   1.383954   2.393980   3.846668
    22  H    2.143105   3.375577   1.082144   3.847842   4.269320
    23  C    2.790573   2.399390   2.400470   1.384472   3.379608
    24  H    3.388651   2.137686   3.847528   1.081738   2.461091
    25  H    3.389033   3.846268   2.137633   3.376246   4.928446
    26  H    3.872158   3.380293   3.381134   2.142990   4.273426
                   21         22         23         24         25
    21  C    0.000000
    22  H    2.139656   0.000000
    23  C    1.385012   3.379685   0.000000
    24  H    3.376524   4.929565   2.142477   0.000000
    25  H    1.081823   2.458990   2.142649   4.273122   0.000000
    26  H    2.143442   4.272837   1.081586   2.471208   2.471156
                   26
    26  H    0.000000
 Stoichiometry    C12H10N2O2
 Framework group  C1[X(C12H10N2O2)]
 Deg. of freedom    72
 Full point group                 C1      NOp   1
 Largest Abelian subgroup         C1      NOp   1
 Largest concise Abelian subgroup C1      NOp   1
                         Standard orientation:                         
 ---------------------------------------------------------------------
 Center     Atomic      Atomic             Coordinates (Angstroms)
 Number     Number       Type             X           Y           Z
 ---------------------------------------------------------------------
      1          6           0        0.863758   -0.544775    0.077862
      2          6           0        2.179123   -0.123409    0.040507
      3          6           0        2.496865    1.215363   -0.102799
      4          6           0        1.479249    2.130739   -0.214710
      5          6           0        0.138794    1.731542   -0.182825
      6          6           0       -0.170297    0.365842   -0.024744
      7          1           0        0.651613   -1.596351    0.198863
      8          1           0        3.531929    1.518983   -0.127560
      9          1           0        1.712317    3.180986   -0.333751
     10          7           0        3.246735   -1.104889    0.155405
     11          8           0        4.393414   -0.702087    0.123093
     12          8           0        2.936925   -2.274494    0.275521
     13          7           0       -0.850630    2.673403   -0.289309
     14          1           0       -0.600867    3.574685   -0.655449
     15          1           0       -1.782992    2.362014   -0.499852
     16          6           0       -1.574398   -0.110655    0.004268
     17          6           0       -2.005874   -1.071819   -0.904306
     18          6           0       -2.479436    0.369577    0.947318
     19          6           0       -3.307165   -1.541793   -0.872355
     20          1           0       -1.312571   -1.449027   -1.644680
     21          6           0       -3.780309   -0.101548    0.980473
     22          1           0       -2.153786    1.104563    1.671738
     23          6           0       -4.199002   -1.056480    0.068848
     24          1           0       -3.625503   -2.288118   -1.587768
     25          1           0       -4.467526    0.273784    1.726931
     26          1           0       -5.215909   -1.423983    0.094716
 ---------------------------------------------------------------------
 Rotational constants (GHZ):      1.0522253      0.3195187      0.2595349
 General basis read from cards:  (5D, 7F)
 There are   688 symmetry adapted basis functions of A   symmetry.
 Integral buffers will be    131072 words long.
 Raffenetti 2 integral format.
 Two-electron integral symmetry is turned on.
   688 basis functions,  1044 primitive gaussians,   784 cartesian basis functions
    56 alpha electrons       56 beta electrons
       nuclear repulsion energy      1010.0898485624 Hartrees.
 NAtoms=   26 NActive=   26 NUniq=   26 SFac= 7.50D-01 NAtFMM=   80 NAOKFM=F Big=F
 One-electron integrals computed using PRISM.
 NBasis=   688 RedAO= T  NBF=   688
 NBsUse=   681 1.00D-06 NBFU=   681
 Harris functional with IExCor=20419 diagonalized for initial guess.
 ExpMin= 4.85D-02 ExpMax= 2.70D+04 ExpMxC= 9.22D+02 IAcc=3 IRadAn=         5 AccDes= 0.00D+00
 HarFok:  IExCor=20419 AccDes= 0.00D+00 IRadAn=         5 IDoV= 1
 ScaDFX=  1.000000  1.000000  1.000000  1.000000
 FoFCou: FMM=F IPFlag=           0 FMFlag=      100000 FMFlg1=           0
         NFxFlg=           0 DoJE=T BraDBF=F KetDBF=T FulRan=T
         Omega=  0.000000  0.000000  1.000000  0.000000  0.000000 ICntrl=     500 IOpCl=  0
         NMat0=    1 NMatS0=    1 NMatT0=    0 NMatD0=    1 NMtDS0=    0 NMtDT0=    0
         I1Cent=           4 NGrid=           0.
 Petite list used in FoFCou.
 Initial guess orbital symmetries:
       Occupied  (A) (A) (A) (A) (A) (A) (A) (A) (A) (A) (A) (A)
                 (A) (A) (A) (A) (A) (A) (A) (A) (A) (A) (A) (A)
                 (A) (A) (A) (A) (A) (A) (A) (A) (A) (A) (A) (A)
                 (A) (A) (A) (A) (A) (A) (A) (A) (A) (A) (A) (A)
                 (A) (A) (A) (A) (A) (A) (A) (A)
       Virtual   (A) (A) (A) (A) (A) (A) (A) (A) (A) (A) (A) (A)
                 (A) (A) (A) (A) (A) (A) (A) (A) (A) (A) (A) (A)
                 (A) (A) (A) (A) (A) (A) (A) (A) (A) (A) (A) (A)
                 (A) (A) (A) (A) (A) (A) (A) (A) (A) (A) (A) (A)
                 (A) (A) (A) (A) (A) (A) (A) (A) (A) (A) (A) (A)
                 (A) (A) (A) (A) (A) (A) (A) (A) (A) (A) (A) (A)
                 (A) (A) (A) (A) (A) (A) (A) (A) (A) (A) (A) (A)
                 (A) (A) (A) (A) (A) (A) (A) (A) (A) (A) (A) (A)
                 (A) (A) (A) (A) (A) (A) (A) (A) (A) (A) (A) (A)
                 (A) (A) (A) (A) (A) (A) (A) (A) (A) (A) (A) (A)
                 (A) (A) (A) (A) (A) (A) (A) (A) (A) (A) (A) (A)
                 (A) (A) (A) (A) (A) (A) (A) (A) (A) (A) (A) (A)
                 (A) (A) (A) (A) (A) (A) (A) (A) (A) (A) (A) (A)
                 (A) (A) (A) (A) (A) (A) (A) (A) (A) (A) (A) (A)
                 (A) (A) (A) (A) (A) (A) (A) (A) (A) (A) (A) (A)
                 (A) (A) (A) (A) (A) (A) (A) (A) (A) (A) (A) (A)
                 (A) (A) (A) (A) (A) (A) (A) (A) (A) (A) (A) (A)
                 (A) (A) (A) (A) (A) (A) (A) (A) (A) (A) (A) (A)
                 (A) (A) (A) (A) (A) (A) (A) (A) (A) (A) (A) (A)
                 (A) (A) (A) (A) (A) (A) (A) (A) (A) (A) (A) (A)
                 (A) (A) (A) (A) (A) (A) (A) (A) (A) (A) (A) (A)
                 (A) (A) (A) (A) (A) (A) (A) (A) (A) (A) (A) (A)
                 (A) (A) (A) (A) (A) (A) (A) (A) (A) (A) (A) (A)
                 (A) (A) (A) (A) (A) (A) (A) (A) (A) (A) (A) (A)
                 (A) (A) (A) (A) (A) (A) (A) (A) (A) (A) (A) (A)
                 (A) (A) (A) (A) (A) (A) (A) (A) (A) (A) (A) (A)
                 (A) (A) (A) (A) (A) (A) (A) (A) (A) (A) (A) (A)
                 (A) (A) (A) (A) (A) (A) (A) (A) (A) (A) (A) (A)
                 (A) (A) (A) (A) (A) (A) (A) (A) (A) (A) (A) (A)
                 (A) (A) (A) (A) (A) (A) (A) (A) (A) (A) (A) (A)
                 (A) (A) (A) (A) (A) (A) (A) (A) (A) (A) (A) (A)
                 (A) (A) (A) (A) (A) (A) (A) (A) (A) (A) (A) (A)
                 (A) (A) (A) (A) (A) (A) (A) (A) (A) (A) (A) (A)
                 (A) (A) (A) (A) (A) (A) (A) (A) (A) (A) (A) (A)
                 (A) (A) (A) (A) (A) (A) (A) (A) (A) (A) (A) (A)
                 (A) (A) (A) (A) (A) (A) (A) (A) (A) (A) (A) (A)
                 (A) (A) (A) (A) (A) (A) (A) (A) (A) (A) (A) (A)
                 (A) (A) (A) (A) (A) (A) (A) (A) (A) (A) (A) (A)
                 (A) (A) (A) (A) (A) (A) (A) (A) (A) (A) (A) (A)
                 (A) (A) (A) (A) (A) (A) (A) (A) (A) (A) (A) (A)
                 (A) (A) (A) (A) (A) (A) (A) (A) (A) (A) (A) (A)
                 (A) (A) (A) (A) (A) (A) (A) (A) (A) (A) (A) (A)
                 (A) (A) (A) (A) (A) (A) (A) (A) (A) (A) (A) (A)
                 (A) (A) (A) (A) (A) (A) (A) (A) (A) (A) (A) (A)
                 (A) (A) (A) (A) (A) (A) (A) (A) (A) (A) (A) (A)
                 (A) (A) (A) (A) (A) (A) (A) (A) (A) (A) (A) (A)
                 (A) (A) (A) (A) (A) (A) (A) (A) (A) (A) (A) (A)
                 (A) (A) (A) (A) (A) (A) (A) (A) (A) (A) (A) (A)
                 (A) (A) (A) (A) (A) (A) (A) (A) (A) (A) (A) (A)
                 (A) (A) (A) (A) (A) (A) (A) (A) (A) (A) (A) (A)
                 (A) (A) (A) (A) (A) (A) (A) (A) (A) (A) (A) (A)
                 (A) (A) (A) (A) (A) (A) (A) (A) (A) (A) (A) (A)
                 (A)
 The electronic state of the initial guess is 1-A.
 FoFJK:  IHMeth= 1 ICntrl=     0 DoSepK=T KAlg= 1 I1Cent= 0 FoldK=F
 Gradient too large for Newton-Raphson -- use scaled steepest descent instead.
 FoFJK:  IHMeth= 1 ICntrl=     0 DoSepK=T KAlg= 1 I1Cent= 0 FoldK=F
 FoFJK:  IHMeth= 1 ICntrl=     0 DoSepK=T KAlg= 1 I1Cent= 0 FoldK=F
 FoFJK:  IHMeth= 1 ICntrl=     0 DoSepK=T KAlg= 1 I1Cent= 0 FoldK=F
 FoFJK:  IHMeth= 1 ICntrl=     0 DoSepK=T KAlg= 1 I1Cent= 0 FoldK=F
 Gradient too large for Newton-Raphson -- use scaled steepest descent instead.
 FoFJK:  IHMeth= 1 ICntrl=     0 DoSepK=T KAlg= 1 I1Cent= 0 FoldK=F
 FoFJK:  IHMeth= 1 ICntrl=     0 DoSepK=T KAlg= 1 I1Cent= 0 FoldK=F
 FoFJK:  IHMeth= 1 ICntrl=     0 DoSepK=T KAlg= 1 I1Cent= 0 FoldK=F
 FoFJK:  IHMeth= 1 ICntrl=     0 DoSepK=T KAlg= 1 I1Cent= 0 FoldK=F
 Gradient too large for Newton-Raphson -- use scaled steepest descent instead.
 FoFJK:  IHMeth= 1 ICntrl=     0 DoSepK=T KAlg= 1 I1Cent= 0 FoldK=F
 FoFJK:  IHMeth= 1 ICntrl=     0 DoSepK=T KAlg= 1 I1Cent= 0 FoldK=F
 FoFJK:  IHMeth= 1 ICntrl=     0 DoSepK=T KAlg= 1 I1Cent= 0 FoldK=F
 Gradient too large for Newton-Raphson -- use scaled steepest descent instead.
 FoFJK:  IHMeth= 1 ICntrl=     0 DoSepK=T KAlg= 1 I1Cent= 0 FoldK=F
 FoFJK:  IHMeth= 1 ICntrl=     0 DoSepK=T KAlg= 1 I1Cent= 0 FoldK=F
 FoFJK:  IHMeth= 1 ICntrl=     0 DoSepK=T KAlg= 1 I1Cent= 0 FoldK=F
 FoFJK:  IHMeth= 1 ICntrl=     0 DoSepK=T KAlg= 1 I1Cent= 0 FoldK=F
 Gradient too large for Newton-Raphson -- use scaled steepest descent instead.
 FoFJK:  IHMeth= 1 ICntrl=     0 DoSepK=T KAlg= 1 I1Cent= 0 FoldK=F
 FoFJK:  IHMeth= 1 ICntrl=     0 DoSepK=T KAlg= 1 I1Cent= 0 FoldK=F
 FoFJK:  IHMeth= 1 ICntrl=     0 DoSepK=T KAlg= 1 I1Cent= 0 FoldK=F
 Gradient too large for Newton-Raphson -- use scaled steepest descent instead.
 FoFJK:  IHMeth= 1 ICntrl=     0 DoSepK=T KAlg= 1 I1Cent= 0 FoldK=F
 FoFJK:  IHMeth= 1 ICntrl=     0 DoSepK=T KAlg= 1 I1Cent= 0 FoldK=F
 FoFJK:  IHMeth= 1 ICntrl=     0 DoSepK=T KAlg= 1 I1Cent= 0 FoldK=F
 FoFJK:  IHMeth= 1 ICntrl=     0 DoSepK=T KAlg= 1 I1Cent= 0 FoldK=F
 LinEq1:  Iter=  0 NonCon=     1 RMS=3.50D-05 Max=2.36D-03
 AX will form     1 AO Fock derivatives at one time.
 FoFJK:  IHMeth= 1 ICntrl=     0 DoSepK=T KAlg= 1 I1Cent= 0 FoldK=F
 LinEq1:  Iter=  1 NonCon=     1 RMS=3.71D-05 Max=4.63D-03
 FoFJK:  IHMeth= 1 ICntrl=     0 DoSepK=T KAlg= 1 I1Cent= 0 FoldK=F
 LinEq1:  Iter=  2 NonCon=     1 RMS=7.70D-06 Max=8.66D-04
 FoFJK:  IHMeth= 1 ICntrl=     0 DoSepK=T KAlg= 1 I1Cent= 0 FoldK=F
 LinEq1:  Iter=  3 NonCon=     1 RMS=6.75D-06 Max=3.63D-04
 FoFJK:  IHMeth= 1 ICntrl=     0 DoSepK=T KAlg= 1 I1Cent= 0 FoldK=F
 LinEq1:  Iter=  4 NonCon=     1 RMS=1.55D-06 Max=8.59D-05
 FoFJK:  IHMeth= 1 ICntrl=     0 DoSepK=T KAlg= 1 I1Cent= 0 FoldK=F
 LinEq1:  Iter=  5 NonCon=     1 RMS=1.19D-06 Max=6.80D-05
 FoFJK:  IHMeth= 1 ICntrl=     0 DoSepK=T KAlg= 1 I1Cent= 0 FoldK=F
 LinEq1:  Iter=  6 NonCon=     1 RMS=2.01D-07 Max=1.25D-05
 FoFJK:  IHMeth= 1 ICntrl=     0 DoSepK=T KAlg= 1 I1Cent= 0 FoldK=F
 LinEq1:  Iter=  7 NonCon=     1 RMS=1.57D-07 Max=8.88D-06
 FoFJK:  IHMeth= 1 ICntrl=     0 DoSepK=T KAlg= 1 I1Cent= 0 FoldK=F
 LinEq1:  Iter=  8 NonCon=     1 RMS=4.03D-08 Max=2.12D-06
 FoFJK:  IHMeth= 1 ICntrl=     0 DoSepK=T KAlg= 1 I1Cent= 0 FoldK=F
 LinEq1:  Iter=  9 NonCon=     1 RMS=2.61D-08 Max=1.37D-06
 FoFJK:  IHMeth= 1 ICntrl=     0 DoSepK=T KAlg= 1 I1Cent= 0 FoldK=F
 LinEq1:  Iter= 10 NonCon=     1 RMS=1.10D-08 Max=5.64D-07
 FoFJK:  IHMeth= 1 ICntrl=     0 DoSepK=T KAlg= 1 I1Cent= 0 FoldK=F
 LinEq1:  Iter= 11 NonCon=     1 RMS=5.84D-09 Max=3.09D-07
 FoFJK:  IHMeth= 1 ICntrl=     0 DoSepK=T KAlg= 1 I1Cent= 0 FoldK=F
 LinEq1:  Iter= 12 NonCon=     0 RMS=2.01D-09 Max=6.22D-08
 Linear equations converged to 2.646D-08 2.646D-07 after    12 iterations.
 FoFJK:  IHMeth= 1 ICntrl=     0 DoSepK=T KAlg= 1 I1Cent= 0 FoldK=F
 FoFJK:  IHMeth= 1 ICntrl=     0 DoSepK=T KAlg= 1 I1Cent= 0 FoldK=F
 FoFJK:  IHMeth= 1 ICntrl=     0 DoSepK=T KAlg= 1 I1Cent= 0 FoldK=F
 LinEq1:  Iter=  0 NonCon=     1 RMS=1.53D-07 Max=1.02D-05
 FoFJK:  IHMeth= 1 ICntrl=     0 DoSepK=T KAlg= 1 I1Cent= 0 FoldK=F
 LinEq1:  Iter=  1 NonCon=     1 RMS=7.41D-08 Max=5.55D-06
 FoFJK:  IHMeth= 1 ICntrl=     0 DoSepK=T KAlg= 1 I1Cent= 0 FoldK=F
 LinEq1:  Iter=  2 NonCon=     1 RMS=1.87D-08 Max=8.30D-07
 FoFJK:  IHMeth= 1 ICntrl=     0 DoSepK=T KAlg= 1 I1Cent= 0 FoldK=F
 LinEq1:  Iter=  3 NonCon=     1 RMS=1.09D-08 Max=5.69D-07
 FoFJK:  IHMeth= 1 ICntrl=     0 DoSepK=T KAlg= 1 I1Cent= 0 FoldK=F
 LinEq1:  Iter=  4 NonCon=     1 RMS=6.32D-09 Max=3.68D-07
 FoFJK:  IHMeth= 1 ICntrl=     0 DoSepK=T KAlg= 1 I1Cent= 0 FoldK=F
 LinEq1:  Iter=  5 NonCon=     1 RMS=3.14D-09 Max=2.76D-07
 FoFJK:  IHMeth= 1 ICntrl=     0 DoSepK=T KAlg= 1 I1Cent= 0 FoldK=F
 LinEq1:  Iter=  6 NonCon=     1 RMS=1.71D-09 Max=1.18D-07
 FoFJK:  IHMeth= 1 ICntrl=     0 DoSepK=T KAlg= 1 I1Cent= 0 FoldK=F
 LinEq1:  Iter=  7 NonCon=     1 RMS=1.89D-09 Max=1.68D-07
 FoFJK:  IHMeth= 1 ICntrl=     0 DoSepK=T KAlg= 1 I1Cent= 0 FoldK=F
 LinEq1:  Iter=  8 NonCon=     1 RMS=1.41D-09 Max=6.06D-08
 FoFJK:  IHMeth= 1 ICntrl=     0 DoSepK=T KAlg= 1 I1Cent= 0 FoldK=F
 LinEq1:  Iter=  9 NonCon=     1 RMS=9.62D-10 Max=4.35D-08
 FoFJK:  IHMeth= 1 ICntrl=     0 DoSepK=T KAlg= 1 I1Cent= 0 FoldK=F
 LinEq1:  Iter= 10 NonCon=     1 RMS=5.56D-10 Max=3.00D-08
 FoFJK:  IHMeth= 1 ICntrl=     0 DoSepK=T KAlg= 1 I1Cent= 0 FoldK=F
 LinEq1:  Iter= 11 NonCon=     1 RMS=3.38D-10 Max=1.77D-08
 FoFJK:  IHMeth= 1 ICntrl=     0 DoSepK=T KAlg= 1 I1Cent= 0 FoldK=F
 LinEq1:  Iter= 12 NonCon=     1 RMS=1.96D-10 Max=8.01D-09
 FoFJK:  IHMeth= 1 ICntrl=     0 DoSepK=T KAlg= 1 I1Cent= 0 FoldK=F
 LinEq1:  Iter= 13 NonCon=     1 RMS=1.53D-10 Max=5.34D-09
 FoFJK:  IHMeth= 1 ICntrl=     0 DoSepK=T KAlg= 1 I1Cent= 0 FoldK=F
 LinEq1:  Iter= 14 NonCon=     0 RMS=8.77D-11 Max=2.54D-09
 Linear equations converged to 3.201D-10 3.201D-09 after    14 iterations.
 FoFJK:  IHMeth= 1 ICntrl=     0 DoSepK=T KAlg= 1 I1Cent= 0 FoldK=F
 SCF Done:  E(RCAM-B3LYP) =  -723.091565919     a.u. after    9 cycles
            Convg  =    0.1998D-05                    53 Fock formations.
              S**2 =  0.0000                  -V/T =  2.0040

 **********************************************************************

            Population analysis using the SCF density.

 **********************************************************************

 Orbital symmetries:
       Occupied  (A) (A) (A) (A) (A) (A) (A) (A) (A) (A) (A) (A)
                 (A) (A) (A) (A) (A) (A) (A) (A) (A) (A) (A) (A)
                 (A) (A) (A) (A) (A) (A) (A) (A) (A) (A) (A) (A)
                 (A) (A) (A) (A) (A) (A) (A) (A) (A) (A) (A) (A)
                 (A) (A) (A) (A) (A) (A) (A) (A)
       Virtual   (A) (A) (A) (A) (A) (A) (A) (A) (A) (A) (A) (A)
                 (A) (A) (A) (A) (A) (A) (A) (A) (A) (A) (A) (A)
                 (A) (A) (A) (A) (A) (A) (A) (A) (A) (A) (A) (A)
                 (A) (A) (A) (A) (A) (A) (A) (A) (A) (A) (A) (A)
                 (A) (A) (A) (A) (A) (A) (A) (A) (A) (A) (A) (A)
                 (A) (A) (A) (A) (A) (A) (A) (A) (A) (A) (A) (A)
                 (A) (A) (A) (A) (A) (A) (A) (A) (A) (A) (A) (A)
                 (A) (A) (A) (A) (A) (A) (A) (A) (A) (A) (A) (A)
                 (A) (A) (A) (A) (A) (A) (A) (A) (A) (A) (A) (A)
                 (A) (A) (A) (A) (A) (A) (A) (A) (A) (A) (A) (A)
                 (A) (A) (A) (A) (A) (A) (A) (A) (A) (A) (A) (A)
                 (A) (A) (A) (A) (A) (A) (A) (A) (A) (A) (A) (A)
                 (A) (A) (A) (A) (A) (A) (A) (A) (A) (A) (A) (A)
                 (A) (A) (A) (A) (A) (A) (A) (A) (A) (A) (A) (A)
                 (A) (A) (A) (A) (A) (A) (A) (A) (A) (A) (A) (A)
                 (A) (A) (A) (A) (A) (A) (A) (A) (A) (A) (A) (A)
                 (A) (A) (A) (A) (A) (A) (A) (A) (A) (A) (A) (A)
                 (A) (A) (A) (A) (A) (A) (A) (A) (A) (A) (A) (A)
                 (A) (A) (A) (A) (A) (A) (A) (A) (A) (A) (A) (A)
                 (A) (A) (A) (A) (A) (A) (A) (A) (A) (A) (A) (A)
                 (A) (A) (A) (A) (A) (A) (A) (A) (A) (A) (A) (A)
                 (A) (A) (A) (A) (A) (A) (A) (A) (A) (A) (A) (A)
                 (A) (A) (A) (A) (A) (A) (A) (A) (A) (A) (A) (A)
                 (A) (A) (A) (A) (A) (A) (A) (A) (A) (A) (A) (A)
                 (A) (A) (A) (A) (A) (A) (A) (A) (A) (A) (A) (A)
                 (A) (A) (A) (A) (A) (A) (A) (A) (A) (A) (A) (A)
                 (A) (A) (A) (A) (A) (A) (A) (A) (A) (A) (A) (A)
                 (A) (A) (A) (A) (A) (A) (A) (A) (A) (A) (A) (A)
                 (A) (A) (A) (A) (A) (A) (A) (A) (A) (A) (A) (A)
                 (A) (A) (A) (A) (A) (A) (A) (A) (A) (A) (A) (A)
                 (A) (A) (A) (A) (A) (A) (A) (A) (A) (A) (A) (A)
                 (A) (A) (A) (A) (A) (A) (A) (A) (A) (A) (A) (A)
                 (A) (A) (A) (A) (A) (A) (A) (A) (A) (A) (A) (A)
                 (A) (A) (A) (A) (A) (A) (A) (A) (A) (A) (A) (A)
                 (A) (A) (A) (A) (A) (A) (A) (A) (A) (A) (A) (A)
                 (A) (A) (A) (A) (A) (A) (A) (A) (A) (A) (A) (A)
                 (A) (A) (A) (A) (A) (A) (A) (A) (A) (A) (A) (A)
                 (A) (A) (A) (A) (A) (A) (A) (A) (A) (A) (A) (A)
                 (A) (A) (A) (A) (A) (A) (A) (A) (A) (A) (A) (A)
                 (A) (A) (A) (A) (A) (A) (A) (A) (A) (A) (A) (A)
                 (A) (A) (A) (A) (A) (A) (A) (A) (A) (A) (A) (A)
                 (A) (A) (A) (A) (A) (A) (A) (A) (A) (A) (A) (A)
                 (A) (A) (A) (A) (A) (A) (A) (A) (A) (A) (A) (A)
                 (A) (A) (A) (A) (A) (A) (A) (A) (A) (A) (A) (A)
                 (A) (A) (A) (A) (A) (A) (A) (A) (A) (A) (A) (A)
                 (A) (A) (A) (A) (A) (A) (A) (A) (A) (A) (A) (A)
                 (A) (A) (A) (A) (A) (A) (A) (A) (A) (A) (A) (A)
                 (A) (A) (A) (A) (A) (A) (A) (A) (A) (A) (A) (A)
                 (A) (A) (A) (A) (A) (A) (A) (A) (A) (A) (A) (A)
                 (A) (A) (A) (A) (A) (A) (A) (A) (A) (A) (A) (A)
                 (A) (A) (A) (A) (A) (A) (A) (A) (A) (A) (A) (A)
                 (A) (A) (A) (A) (A) (A) (A) (A) (A) (A) (A) (A)
                 (A)
 The electronic state is 1-A.
 Alpha  occ. eigenvalues --  -19.22349 -19.22347 -14.62546 -14.41964 -10.32114
 Alpha  occ. eigenvalues --  -10.29759 -10.27497 -10.27467 -10.27402 -10.27328
 Alpha  occ. eigenvalues --  -10.26496 -10.26317 -10.26258 -10.26243 -10.26186
 Alpha  occ. eigenvalues --  -10.26120  -1.31599  -1.13569  -1.03927  -0.97193
 Alpha  occ. eigenvalues --   -0.96055  -0.89034  -0.87076  -0.84659  -0.82797
 Alpha  occ. eigenvalues --   -0.77095  -0.73149  -0.70521  -0.69155  -0.66247
 Alpha  occ. eigenvalues --   -0.63827  -0.62109  -0.61282  -0.60861  -0.60063
 Alpha  occ. eigenvalues --   -0.57964  -0.54828  -0.54358  -0.52851  -0.52345
 Alpha  occ. eigenvalues --   -0.50917  -0.50659  -0.49531  -0.48127  -0.45769
 Alpha  occ. eigenvalues --   -0.45005  -0.42440  -0.41954  -0.40966  -0.37745
 Alpha  occ. eigenvalues --   -0.37462  -0.35976  -0.34932  -0.32925  -0.31804
 Alpha  occ. eigenvalues --   -0.28478
 Alpha virt. eigenvalues --   -0.03795  -0.00286   0.01456   0.01833   0.02797
 Alpha virt. eigenvalues --    0.03178   0.04236   0.04982   0.05137   0.05977
 Alpha virt. eigenvalues --    0.06847   0.07198   0.07517   0.07659   0.08013
 Alpha virt. eigenvalues --    0.10287   0.10824   0.10911   0.11036   0.11494
 Alpha virt. eigenvalues --    0.13340   0.13952   0.14228   0.14606   0.14816
 Alpha virt. eigenvalues --    0.15438   0.16049   0.16493   0.16941   0.17369
 Alpha virt. eigenvalues --    0.17548   0.18005   0.18638   0.19052   0.19642
 Alpha virt. eigenvalues --    0.20131   0.20542   0.21428   0.21763   0.22198
 Alpha virt. eigenvalues --    0.22437   0.22686   0.22917   0.22967   0.23511
 Alpha virt. eigenvalues --    0.24065   0.24400   0.24795   0.25110   0.25229
 Alpha virt. eigenvalues --    0.25768   0.26177   0.26630   0.26929   0.27386
 Alpha virt. eigenvalues --    0.27555   0.27934   0.28125   0.28672   0.28930
 Alpha virt. eigenvalues --    0.29214   0.29652   0.30227   0.30353   0.30526
 Alpha virt. eigenvalues --    0.31253   0.31991   0.32094   0.32677   0.32908
 Alpha virt. eigenvalues --    0.33661   0.33828   0.34373   0.34620   0.35199
 Alpha virt. eigenvalues --    0.35543   0.35913   0.36144   0.36464   0.36675
 Alpha virt. eigenvalues --    0.37260   0.37735   0.38107   0.38198   0.38547
 Alpha virt. eigenvalues --    0.38998   0.39133   0.39333   0.39678   0.40199
 Alpha virt. eigenvalues --    0.40753   0.41009   0.41234   0.41594   0.42102
 Alpha virt. eigenvalues --    0.42464   0.42995   0.43060   0.43473   0.43977
 Alpha virt. eigenvalues --    0.44903   0.45095   0.45408   0.45712   0.46036
 Alpha virt. eigenvalues --    0.46385   0.46783   0.47056   0.47834   0.48131
 Alpha virt. eigenvalues --    0.48538   0.49067   0.49372   0.49761   0.50246
 Alpha virt. eigenvalues --    0.50537   0.50820   0.51638   0.51969   0.52158
 Alpha virt. eigenvalues --    0.52412   0.53276   0.53558   0.54091   0.54977
 Alpha virt. eigenvalues --    0.55199   0.56231   0.56315   0.56726   0.56762
 Alpha virt. eigenvalues --    0.57042   0.57869   0.58046   0.58795   0.58946
 Alpha virt. eigenvalues --    0.59766   0.60419   0.60966   0.61148   0.61669
 Alpha virt. eigenvalues --    0.61972   0.62311   0.62705   0.63114   0.63399
 Alpha virt. eigenvalues --    0.63675   0.64435   0.64658   0.65117   0.65839
 Alpha virt. eigenvalues --    0.66049   0.66541   0.67112   0.67603   0.68025
 Alpha virt. eigenvalues --    0.68248   0.68427   0.68814   0.68976   0.69861
 Alpha virt. eigenvalues --    0.70052   0.70486   0.70792   0.71187   0.71905
 Alpha virt. eigenvalues --    0.72025   0.72252   0.72947   0.73298   0.73784
 Alpha virt. eigenvalues --    0.74305   0.74501   0.74692   0.75482   0.75522
 Alpha virt. eigenvalues --    0.75894   0.76376   0.76809   0.76962   0.77795
 Alpha virt. eigenvalues --    0.78386   0.78527   0.78622   0.79277   0.79514
 Alpha virt. eigenvalues --    0.80119   0.80358   0.80769   0.80888   0.81038
 Alpha virt. eigenvalues --    0.81216   0.81890   0.82545   0.83271   0.84068
 Alpha virt. eigenvalues --    0.84626   0.85096   0.86312   0.86822   0.87071
 Alpha virt. eigenvalues --    0.87695   0.88137   0.88671   0.88997   0.89485
 Alpha virt. eigenvalues --    0.90517   0.91690   0.92801   0.93119   0.93702
 Alpha virt. eigenvalues --    0.94568   0.95505   0.96091   0.96358   0.97605
 Alpha virt. eigenvalues --    0.97962   0.98630   0.99974   1.00617   1.01735
 Alpha virt. eigenvalues --    1.02033   1.02309   1.02715   1.03570   1.04088
 Alpha virt. eigenvalues --    1.04348   1.05976   1.06274   1.06792   1.07799
 Alpha virt. eigenvalues --    1.08499   1.09424   1.09756   1.10567   1.11804
 Alpha virt. eigenvalues --    1.12592   1.13653   1.14047   1.15338   1.15987
 Alpha virt. eigenvalues --    1.16568   1.18411   1.19675   1.21244   1.21988
 Alpha virt. eigenvalues --    1.22494   1.23379   1.24640   1.25385   1.27280
 Alpha virt. eigenvalues --    1.28180   1.29620   1.30504   1.31003   1.33354
 Alpha virt. eigenvalues --    1.33693   1.34515   1.36334   1.37289   1.38109
 Alpha virt. eigenvalues --    1.38658   1.39633   1.42451   1.43241   1.43454
 Alpha virt. eigenvalues --    1.44234   1.46806   1.47301   1.47772   1.49180
 Alpha virt. eigenvalues --    1.50502   1.51218   1.51973   1.52866   1.53735
 Alpha virt. eigenvalues --    1.54420   1.55040   1.56103   1.57469   1.58720
 Alpha virt. eigenvalues --    1.58824   1.59912   1.61732   1.62512   1.64021
 Alpha virt. eigenvalues --    1.65169   1.66499   1.67156   1.69650   1.71960
 Alpha virt. eigenvalues --    1.72511   1.73282   1.74137   1.74864   1.76571
 Alpha virt. eigenvalues --    1.77996   1.78602   1.78742   1.80503   1.81911
 Alpha virt. eigenvalues --    1.82047   1.83239   1.84248   1.85116   1.86206
 Alpha virt. eigenvalues --    1.86905   1.88432   1.88847   1.89759   1.90412
 Alpha virt. eigenvalues --    1.91308   1.91647   1.92651   1.93399   1.94143
 Alpha virt. eigenvalues --    1.96183   1.96604   1.97823   1.98540   1.99062
 Alpha virt. eigenvalues --    1.99259   2.00697   2.00848   2.02023   2.02885
 Alpha virt. eigenvalues --    2.03897   2.05016   2.05498   2.06432   2.07637
 Alpha virt. eigenvalues --    2.08751   2.10147   2.11632   2.12284   2.13024
 Alpha virt. eigenvalues --    2.13866   2.14182   2.16952   2.20035   2.22020
 Alpha virt. eigenvalues --    2.22722   2.23057   2.25415   2.28046   2.29251
 Alpha virt. eigenvalues --    2.30581   2.31430   2.32679   2.35034   2.35297
 Alpha virt. eigenvalues --    2.36189   2.36931   2.37993   2.39120   2.39824
 Alpha virt. eigenvalues --    2.40878   2.42380   2.42763   2.44841   2.45293
 Alpha virt. eigenvalues --    2.46832   2.48336   2.50375   2.50761   2.51976
 Alpha virt. eigenvalues --    2.55887   2.57132   2.58455   2.59933   2.62810
 Alpha virt. eigenvalues --    2.63853   2.64105   2.66310   2.66968   2.67598
 Alpha virt. eigenvalues --    2.68672   2.69527   2.70661   2.73067   2.73645
 Alpha virt. eigenvalues --    2.74124   2.74932   2.75962   2.77741   2.78559
 Alpha virt. eigenvalues --    2.79130   2.80369   2.81469   2.84640   2.85603
 Alpha virt. eigenvalues --    2.86947   2.87666   2.88691   2.89214   2.90318
 Alpha virt. eigenvalues --    2.90456   2.91269   2.92453   2.93147   2.93502
 Alpha virt. eigenvalues --    2.94142   2.94851   2.95957   2.96809   2.97540
 Alpha virt. eigenvalues --    2.98383   2.99447   3.00421   3.02046   3.02457
 Alpha virt. eigenvalues --    3.03228   3.04445   3.04665   3.05590   3.06290
 Alpha virt. eigenvalues --    3.07204   3.10974   3.11120   3.13419   3.14380
 Alpha virt. eigenvalues --    3.15897   3.16225   3.17141   3.18544   3.18886
 Alpha virt. eigenvalues --    3.19760   3.20653   3.21727   3.23107   3.23919
 Alpha virt. eigenvalues --    3.24848   3.25920   3.28745   3.29362   3.30866
 Alpha virt. eigenvalues --    3.31575   3.31926   3.33825   3.35791   3.36626
 Alpha virt. eigenvalues --    3.38044   3.38314   3.39007   3.39206   3.39687
 Alpha virt. eigenvalues --    3.40872   3.41413   3.42519   3.43276   3.44398
 Alpha virt. eigenvalues --    3.45130   3.45642   3.45898   3.46973   3.47624
 Alpha virt. eigenvalues --    3.48096   3.49124   3.50383   3.51258   3.51439
 Alpha virt. eigenvalues --    3.52481   3.52834   3.53392   3.54146   3.55405
 Alpha virt. eigenvalues --    3.56521   3.56716   3.57487   3.58219   3.59658
 Alpha virt. eigenvalues --    3.60233   3.61124   3.61223   3.62215   3.63471
 Alpha virt. eigenvalues --    3.64916   3.65911   3.66709   3.67370   3.67941
 Alpha virt. eigenvalues --    3.70374   3.71437   3.72197   3.74417   3.75968
 Alpha virt. eigenvalues --    3.76650   3.77106   3.81340   3.86515   3.87184
 Alpha virt. eigenvalues --    3.88254   3.88610   3.91240   3.92582   3.94853
 Alpha virt. eigenvalues --    3.96329   3.98166   3.98232   4.02109   4.05929
 Alpha virt. eigenvalues --    4.07223   4.08787   4.10510   4.12895   4.15366
 Alpha virt. eigenvalues --    4.15826   4.19330   4.20543   4.21512   4.23000
 Alpha virt. eigenvalues --    4.23058   4.24334   4.24915   4.26835   4.28671
 Alpha virt. eigenvalues --    4.28746   4.30566   4.31652   4.32423   4.33968
 Alpha virt. eigenvalues --    4.34767   4.35503   4.36869   4.37355   4.39181
 Alpha virt. eigenvalues --    4.41261   4.41732   4.42245   4.44974   4.45841
 Alpha virt. eigenvalues --    4.46370   4.51484   4.55621   4.56657   4.57921
 Alpha virt. eigenvalues --    4.62574   4.67301   4.68493   4.72031   4.74788
 Alpha virt. eigenvalues --    4.76317   4.80030   4.80191   4.81578   4.82546
 Alpha virt. eigenvalues --    4.83774   4.85735   4.87715   4.90360   4.90593
 Alpha virt. eigenvalues --    4.93527   4.94260   4.95146   4.97798   4.99379
 Alpha virt. eigenvalues --    5.00213   5.01792   5.03632   5.06275   5.11541
 Alpha virt. eigenvalues --    5.14054   5.17953   5.18785   5.21369   5.21752
 Alpha virt. eigenvalues --    5.25011   5.27611   5.27798   5.31385   5.33474
 Alpha virt. eigenvalues --    5.34719   5.35052   5.40115   5.42115   5.42935
 Alpha virt. eigenvalues --    5.46858   5.48517   5.51808   5.52392   5.57745
 Alpha virt. eigenvalues --    5.58666   5.59981   5.64412   5.69499   5.73141
 Alpha virt. eigenvalues --    5.75691   5.78624   5.81991   5.82130   5.84400
 Alpha virt. eigenvalues --    5.99552   6.12345   6.14320   6.19304   6.46050
 Alpha virt. eigenvalues --    6.46998   6.54417   6.60837   6.62753   6.65154
 Alpha virt. eigenvalues --    6.95781   6.96962   7.00232   7.14608   7.34009
 Alpha virt. eigenvalues --    7.47746   7.58520   7.81136   7.83934  22.66788
 Alpha virt. eigenvalues --   22.76614  22.85048  22.85457  22.99392  23.00666
 Alpha virt. eigenvalues --   23.05477  23.09618  23.19061  23.25844  23.41259
 Alpha virt. eigenvalues --   23.65340  32.54368  32.88941  44.49479  44.69600
          Condensed to atoms (all electrons):
              1          2          3          4          5          6
     1  C    5.910210   0.430221  -0.256996   0.038847   0.024729   0.285797
     2  C    0.430221   5.904601   0.305113  -0.210105  -0.007765  -0.237817
     3  C   -0.256996   0.305113   6.247494   0.207833  -0.212953  -0.004728
     4  C    0.038847  -0.210105   0.207833   6.813709  -0.240737  -0.307457
     5  C    0.024729  -0.007765  -0.212953  -0.240737   6.080668   0.276241
     6  C    0.285797  -0.237817  -0.004728  -0.307457   0.276241   5.937747
     7  H    0.235802  -0.114450   0.003595   0.004689  -0.004748  -0.031151
     8  H    0.000612  -0.109713   0.327779  -0.069423   0.010350   0.002172
     9  H   -0.004461   0.017652  -0.047289   0.458861  -0.226250   0.001035
    10  N   -0.101753   0.448051  -0.243234  -0.025903   0.008440   0.020252
    11  O    0.001413  -0.097629   0.044585   0.008604  -0.000648  -0.010677
    12  O   -0.017474  -0.045983   0.025074   0.000364  -0.006382   0.005790
    13  N   -0.003407   0.014129  -0.021742  -0.115237   0.147825  -0.023494
    14  H    0.001844  -0.000825   0.002996   0.047632  -0.087017  -0.004010
    15  H   -0.009938  -0.001393  -0.002545  -0.027260   0.028295  -0.050209
    16  C    0.122364  -0.065900  -0.012003  -0.018761   0.178029   0.164390
    17  C    0.016675  -0.017545  -0.001530  -0.004859  -0.049921  -0.021206
    18  C   -0.141261   0.002794  -0.005602  -0.027871  -0.241331  -0.175684
    19  C    0.011518  -0.002128  -0.000137  -0.000526  -0.004225  -0.056496
    20  H   -0.016240   0.001903   0.000130   0.000538  -0.003091  -0.015334
    21  C   -0.005654  -0.001181   0.000588  -0.000142   0.022496  -0.017664
    22  H   -0.016627   0.000708  -0.000585  -0.002091  -0.035377   0.000737
    23  C   -0.003638   0.000198   0.000023   0.000731   0.002632   0.009263
    24  H    0.002776  -0.000124   0.000001   0.000019   0.000265  -0.002397
    25  H    0.001111  -0.000036   0.000014   0.000026  -0.000101   0.000101
    26  H   -0.000033   0.000011   0.000000  -0.000002  -0.000242   0.000253
              7          8          9         10         11         12
     1  C    0.235802   0.000612  -0.004461  -0.101753   0.001413  -0.017474
     2  C   -0.114450  -0.109713   0.017652   0.448051  -0.097629  -0.045983
     3  C    0.003595   0.327779  -0.047289  -0.243234   0.044585   0.025074
     4  C    0.004689  -0.069423   0.458861  -0.025903   0.008604   0.000364
     5  C   -0.004748   0.010350  -0.226250   0.008440  -0.000648  -0.006382
     6  C   -0.031151   0.002172   0.001035   0.020252  -0.010677   0.005790
     7  H    0.422580   0.001895  -0.000552   0.008138  -0.003396  -0.025062
     8  H    0.001895   0.396479  -0.008691   0.006051  -0.000861  -0.002713
     9  H   -0.000552  -0.008691   0.503248  -0.000747   0.000105   0.000067
    10  N    0.008138   0.006051  -0.000747   5.800358   0.078578   0.095741
    11  O   -0.003396  -0.000861   0.000105   0.078578   8.685075  -0.108876
    12  O   -0.025062  -0.002713   0.000067   0.095741  -0.108876   8.674568
    13  N    0.002236   0.000036   0.010537  -0.000219   0.000064   0.000076
    14  H   -0.000307  -0.000530   0.017559   0.000052  -0.000001  -0.000015
    15  H   -0.000148   0.000014  -0.003501  -0.000076   0.000001   0.000073
    16  C   -0.065800  -0.000831  -0.001099   0.000096  -0.000586  -0.004148
    17  C   -0.029001  -0.000397   0.000026  -0.000959   0.000019   0.000962
    18  C    0.010218  -0.000256  -0.000165  -0.001018   0.000017   0.000177
    19  C    0.001036   0.000007   0.000016   0.000152  -0.000009  -0.000392
    20  H   -0.000862   0.000006  -0.000019   0.000275  -0.000012  -0.000663
    21  C    0.000789   0.000006   0.000061  -0.000005   0.000002   0.000120
    22  H    0.001391  -0.000010  -0.000392  -0.000065   0.000005   0.000040
    23  C   -0.000048  -0.000001  -0.000005  -0.000005   0.000004  -0.000080
    24  H   -0.000502   0.000000   0.000000   0.000012  -0.000001  -0.000018
    25  H   -0.000085   0.000000   0.000002   0.000001   0.000000   0.000000
    26  H    0.000086   0.000000   0.000000   0.000000   0.000000  -0.000001
             13         14         15         16         17         18
     1  C   -0.003407   0.001844  -0.009938   0.122364   0.016675  -0.141261
     2  C    0.014129  -0.000825  -0.001393  -0.065900  -0.017545   0.002794
     3  C   -0.021742   0.002996  -0.002545  -0.012003  -0.001530  -0.005602
     4  C   -0.115237   0.047632  -0.027260  -0.018761  -0.004859  -0.027871
     5  C    0.147825  -0.087017   0.028295   0.178029  -0.049921  -0.241331
     6  C   -0.023494  -0.004010  -0.050209   0.164390  -0.021206  -0.175684
     7  H    0.002236  -0.000307  -0.000148  -0.065800  -0.029001   0.010218
     8  H    0.000036  -0.000530   0.000014  -0.000831  -0.000397  -0.000256
     9  H    0.010537   0.017559  -0.003501  -0.001099   0.000026  -0.000165
    10  N   -0.000219   0.000052  -0.000076   0.000096  -0.000959  -0.001018
    11  O    0.000064  -0.000001   0.000001  -0.000586   0.000019   0.000017
    12  O    0.000076  -0.000015   0.000073  -0.004148   0.000962   0.000177
    13  N    6.631368   0.323405   0.419833  -0.134860  -0.010286   0.147478
    14  H    0.323405   0.603529  -0.064333   0.012310   0.000545  -0.030231
    15  H    0.419833  -0.064333   0.485754  -0.019491   0.005463   0.007253
    16  C   -0.134860   0.012310  -0.019491   6.111097   0.216886  -0.352397
    17  C   -0.010286   0.000545   0.005463   0.216886   6.651729  -0.609858
    18  C    0.147478  -0.030231   0.007253  -0.352397  -0.609858   7.454136
    19  C    0.001444  -0.000341   0.000102  -0.135552   0.023967   0.165273
    20  H   -0.001325   0.000359  -0.000352  -0.079059   0.345035  -0.015159
    21  C   -0.005628   0.001342   0.000822  -0.096928   0.066824   0.068264
    22  H    0.025055  -0.003991   0.000185  -0.147333   0.005326   0.398961
    23  C   -0.004663   0.000274  -0.003765  -0.069985  -0.022396  -0.175117
    24  H   -0.000032   0.000008  -0.000083   0.014756  -0.088262   0.006645
    25  H   -0.000188  -0.000003   0.000345   0.011628  -0.002598  -0.074199
    26  H    0.000123  -0.000007  -0.000096  -0.004879   0.016169   0.015625
             19         20         21         22         23         24
     1  C    0.011518  -0.016240  -0.005654  -0.016627  -0.003638   0.002776
     2  C   -0.002128   0.001903  -0.001181   0.000708   0.000198  -0.000124
     3  C   -0.000137   0.000130   0.000588  -0.000585   0.000023   0.000001
     4  C   -0.000526   0.000538  -0.000142  -0.002091   0.000731   0.000019
     5  C   -0.004225  -0.003091   0.022496  -0.035377   0.002632   0.000265
     6  C   -0.056496  -0.015334  -0.017664   0.000737   0.009263  -0.002397
     7  H    0.001036  -0.000862   0.000789   0.001391  -0.000048  -0.000502
     8  H    0.000007   0.000006   0.000006  -0.000010  -0.000001   0.000000
     9  H    0.000016  -0.000019   0.000061  -0.000392  -0.000005   0.000000
    10  N    0.000152   0.000275  -0.000005  -0.000065  -0.000005   0.000012
    11  O   -0.000009  -0.000012   0.000002   0.000005   0.000004  -0.000001
    12  O   -0.000392  -0.000663   0.000120   0.000040  -0.000080  -0.000018
    13  N    0.001444  -0.001325  -0.005628   0.025055  -0.004663  -0.000032
    14  H   -0.000341   0.000359   0.001342  -0.003991   0.000274   0.000008
    15  H    0.000102  -0.000352   0.000822   0.000185  -0.003765  -0.000083
    16  C   -0.135552  -0.079059  -0.096928  -0.147333  -0.069985   0.014756
    17  C    0.023967   0.345035   0.066824   0.005326  -0.022396  -0.088262
    18  C    0.165273  -0.015159   0.068264   0.398961  -0.175117   0.006645
    19  C    5.970756  -0.126458  -0.096656  -0.001680   0.331474   0.371138
    20  H   -0.126458   0.491170  -0.001613   0.002183   0.030181  -0.006166
    21  C   -0.096656  -0.001613   5.955390  -0.125344   0.322990   0.017678
    22  H   -0.001680   0.002183  -0.125344   0.503716   0.030571  -0.000578
    23  C    0.331474   0.030181   0.322990   0.030571   5.797095  -0.099926
    24  H    0.371138  -0.006166   0.017678  -0.000578  -0.099926   0.473121
    25  H    0.020718  -0.000323   0.372741  -0.009160  -0.101810   0.000701
    26  H   -0.081190   0.000543  -0.078689   0.000251   0.373164  -0.002776
             25         26
     1  C    0.001111  -0.000033
     2  C   -0.000036   0.000011
     3  C    0.000014   0.000000
     4  C    0.000026  -0.000002
     5  C   -0.000101  -0.000242
     6  C    0.000101   0.000253
     7  H   -0.000085   0.000086
     8  H    0.000000   0.000000
     9  H    0.000002   0.000000
    10  N    0.000001   0.000000
    11  O    0.000000   0.000000
    12  O    0.000000  -0.000001
    13  N   -0.000188   0.000123
    14  H   -0.000003  -0.000007
    15  H    0.000345  -0.000096
    16  C    0.011628  -0.004879
    17  C   -0.002598   0.016169
    18  C   -0.074199   0.015625
    19  C    0.020718  -0.081190
    20  H   -0.000323   0.000543
    21  C    0.372741  -0.078689
    22  H   -0.009160   0.000251
    23  C   -0.101810   0.373164
    24  H    0.000701  -0.002776
    25  H    0.467533  -0.001929
    26  H   -0.001929   0.449802
 Mulliken atomic charges:
              1
     1  C   -0.506435
     2  C   -0.212787
     3  C   -0.355883
     4  C   -0.531480
     5  C    0.340820
     6  C    0.254544
     7  H    0.583657
     8  H    0.448019
     9  H    0.284000
    10  N    0.907787
    11  O   -0.595774
    12  O   -0.591246
    13  N   -0.402529
    14  H    0.179755
    15  H    0.235051
    16  C    0.378054
    17  C   -0.490809
    18  C   -0.426693
    19  C   -0.391812
    20  H    0.394351
    21  C   -0.400607
    22  H    0.374105
    23  C   -0.417160
    24  H    0.313741
    25  H    0.315512
    26  H    0.313818
 Sum of Mulliken atomic charges =   0.00000
 Mulliken charges with hydrogens summed into heavy atoms:
              1
     1  C    0.077222
     2  C   -0.212787
     3  C    0.092136
     4  C   -0.247479
     5  C    0.340820
     6  C    0.254544
    10  N    0.907787
    11  O   -0.595774
    12  O   -0.591246
    13  N    0.012277
    16  C    0.378054
    17  C   -0.096458
    18  C   -0.052588
    19  C   -0.078071
    21  C   -0.085095
    23  C   -0.103342
 Sum of Mulliken charges with hydrogens summed into heavy atoms =   0.00000
 Electronic spatial extent (au):  <R**2>=           4042.4881
 Charge=              0.0000 electrons
 Dipole moment (field-independent basis, Debye):
    X=             -5.5152    Y=              4.2653    Z=             -1.1762  Tot=              7.0706
 Quadrupole moment (field-independent basis, Debye-Ang):
   XX=           -103.4353   YY=            -87.0658   ZZ=            -91.8783
   XY=             10.9758   XZ=             -1.5342   YZ=              0.3717
 Traceless Quadrupole moment (field-independent basis, Debye-Ang):
   XX=             -9.3089   YY=              7.0607   ZZ=              2.2482
   XY=             10.9758   XZ=             -1.5342   YZ=              0.3717
 Octapole moment (field-independent basis, Debye-Ang**2):
  XXX=           -100.3279  YYY=             47.0899  ZZZ=              2.5323  XYY=            -11.6886
  XXY=             30.1857  XXZ=              1.5959  XZZ=              6.4883  YZZ=             -5.4687
  YYZ=            -19.8485  XYZ=             -3.9283
 Hexadecapole moment (field-independent basis, Debye-Ang**3):
 XXXX=          -4167.4207 YYYY=          -1077.4814 ZZZZ=           -269.0357 XXXY=            171.7151
 XXXZ=            -56.5261 YYYX=             13.9966 YYYZ=            -38.4039 ZZZX=              3.0417
 ZZZY=              7.9391 XXYY=           -877.3999 XXZZ=           -685.8487 YYZZ=           -237.6852
 XXYZ=             30.3366 YYXZ=             19.0015 ZZXY=            -23.1815
 N-N= 1.010089848562D+03 E-N=-3.705708684751D+03  KE= 7.202035984996D+02
 Calling FoFJK, ICntrl=      2127 FMM=F ISym2X=0 I1Cent= 0 IOpClX= 0 NMat=1 NMatS=1 NMatT=0.
 FoFJK:  IHMeth= 1 ICntrl=  2127 DoSepK=T KAlg= 1 I1Cent= 0 FoldK=F
 ***** Axes restored to original set *****
 -------------------------------------------------------------------
 Center     Atomic                   Forces (Hartrees/Bohr)
 Number     Number              X              Y              Z
 -------------------------------------------------------------------
      1        6           0.000082926    0.000199973   -0.000016002
      2        6           0.000262406   -0.000026298   -0.000003195
      3        6           0.000007915   -0.000012578    0.000021534
      4        6           0.000174557    0.000014332    0.000037416
      5        6           0.000065225    0.000111849    0.000098913
      6        6           0.000174453    0.000072311   -0.000066443
      7        1           0.000065969   -0.000168305    0.000034299
      8        1           0.000170451    0.000056243   -0.000006857
      9        1           0.000047517    0.000159367   -0.000034848
     10        7           0.000071550   -0.000109573   -0.000059393
     11        8           0.000380463   -0.000109208    0.000070037
     12        8           0.000038268    0.000012284   -0.000002951
     13        7           0.000108637    0.000124594   -0.000073265
     14        1           0.000022922    0.000222177   -0.000043557
     15        1          -0.000121801    0.000175926   -0.000024802
     16        6          -0.000402071    0.000012493   -0.000144830
     17        6          -0.000092631   -0.000177634    0.000085908
     18        6          -0.000137694   -0.000236456    0.000087867
     19        6          -0.000225777   -0.000017860   -0.000022518
     20        1           0.000003652   -0.000111984   -0.000145553
     21        6          -0.000270523    0.000016682   -0.000087252
     22        1          -0.000058764    0.000089923    0.000156506
     23        6           0.000037187   -0.000146104    0.000082699
     24        1          -0.000083214   -0.000157042   -0.000092017
     25        1          -0.000145577    0.000054283    0.000130015
     26        1          -0.000176044   -0.000049396    0.000018292
 -------------------------------------------------------------------
 Cartesian Forces:  Max     0.000402071 RMS     0.000128391

 GradGradGradGradGradGradGradGradGradGradGradGradGradGradGradGradGradGrad
 Berny optimization.
 Internal  Forces:  Max     0.001702124 RMS     0.000291615
 Search for a local minimum.
 Step number   1 out of a maximum of  139
 All quantities printed in internal units (Hartrees-Bohrs-Radians)
 Mixed Optimization -- En-DIIS/RFO-DIIS
 Second derivative matrix not updated -- first step.
     Eigenvalues ---    0.00968   0.00968   0.00990   0.01788   0.01823
     Eigenvalues ---    0.01907   0.02041   0.02086   0.02112   0.02208
     Eigenvalues ---    0.02243   0.02255   0.02261   0.02278   0.02290
     Eigenvalues ---    0.02293   0.02295   0.02298   0.02300   0.02331
     Eigenvalues ---    0.02337   0.02383   0.03263   0.15997   0.15999
     Eigenvalues ---    0.16000   0.16000   0.16000   0.16000   0.16000
     Eigenvalues ---    0.16000   0.16000   0.16000   0.22000   0.22000
     Eigenvalues ---    0.22369   0.23473   0.23492   0.24598   0.24993
     Eigenvalues ---    0.24995   0.24998   0.25000   0.25000   0.25000
     Eigenvalues ---    0.34225   0.35710   0.35732   0.35737   0.35775
     Eigenvalues ---    0.35785   0.35803   0.36047   0.36120   0.37629
     Eigenvalues ---    0.41935   0.43202   0.43282   0.43331   0.46479
     Eigenvalues ---    0.46772   0.46929   0.47281   0.47459   0.47695
     Eigenvalues ---    0.48278   0.48389   0.48702   0.49841   0.50942
     Eigenvalues ---    0.97228   0.972691000.000001000.000001000.00000
     Eigenvalues --- 1000.000001000.000001000.000001000.000001000.00000
     Eigenvalues --- 1000.000001000.000001000.000001000.000001000.00000
     Eigenvalues --- 1000.000001000.000001000.000001000.000001000.00000
     Eigenvalues --- 1000.000001000.000001000.000001000.000001000.00000
     Eigenvalues --- 1000.000001000.000001000.000001000.000001000.00000
     Eigenvalues --- 1000.000001000.000001000.000001000.000001000.00000
     Eigenvalues --- 1000.000001000.000001000.000001000.000001000.00000
     Eigenvalues --- 1000.000001000.000001000.000001000.000001000.00000
     Eigenvalues --- 1000.000001000.000001000.000001000.000001000.00000
     Eigenvalues --- 1000.000001000.000001000.000001000.000001000.00000
     Eigenvalues --- 1000.000001000.000001000.000001000.00000
 RFO step:  Lambda=-4.09045778D-05 EMin= 9.67522089D-03
 Linear search not attempted -- first point.
 Iteration  1 RMS(Cart)=  0.00877891 RMS(Int)=  0.00001676
 Iteration  2 RMS(Cart)=  0.00002825 RMS(Int)=  0.00000238
 Iteration  3 RMS(Cart)=  0.00000000 RMS(Int)=  0.00000238
 Variable       Old X    -DE/DX   Delta X   Delta X   Delta X     New X
                                 (Linear)    (Quad)   (Total)
    R1        2.61106   0.00058   0.00000   0.00118   0.00118   2.61223
    R2        2.61098   0.00075   0.00000   0.00159   0.00159   2.61258
    R3        2.04008   0.00015   0.00000   0.00043   0.00043   2.04051
    R4        2.61425  -0.00001   0.00000  -0.00009  -0.00009   2.61417
    R5        2.74908   0.00050   0.00000   0.00133   0.00133   2.75041
    R6        2.59518   0.00016   0.00000   0.00027   0.00027   2.59544
    R7        2.03894   0.00018   0.00000   0.00050   0.00050   2.03944
    R8        2.64372   0.00051   0.00000   0.00113   0.00113   2.64485
    R9        2.04537   0.00017   0.00000   0.00047   0.00047   2.04584
   R10        2.66288   0.00094   0.00000   0.00221   0.00221   2.66509
   R11        2.58927   0.00036   0.00000   0.00072   0.00072   2.58998
   R12        2.80253   0.00170   0.00000   0.00497   0.00497   2.80750
   R13        2.29753   0.00032   0.00000   0.00033   0.00033   2.29786
   R14        2.29770  -0.00002   0.00000  -0.00002  -0.00002   2.29767
   R15        1.89798   0.00022   0.00000   0.00047   0.00047   1.89845
   R16        1.89971   0.00006   0.00000   0.00014   0.00014   1.89984
   R17        2.62904   0.00062   0.00000   0.00137   0.00137   2.63041
   R18        2.63145   0.00061   0.00000   0.00134   0.00134   2.63278
   R19        2.61524   0.00046   0.00000   0.00095   0.00095   2.61619
   R20        2.04502   0.00014   0.00000   0.00039   0.00039   2.04541
   R21        2.61529   0.00045   0.00000   0.00094   0.00094   2.61623
   R22        2.04496   0.00015   0.00000   0.00041   0.00041   2.04537
   R23        2.61627   0.00005   0.00000   0.00006   0.00006   2.61633
   R24        2.04419   0.00019   0.00000   0.00054   0.00054   2.04473
   R25        2.61729   0.00005   0.00000   0.00006   0.00005   2.61735
   R26        2.04435   0.00020   0.00000   0.00056   0.00056   2.04491
   R27        2.04390   0.00018   0.00000   0.00051   0.00051   2.04441
    A1        2.10537   0.00051   0.00000   0.00234   0.00234   2.10771
    A2        2.07963  -0.00036   0.00000  -0.00180  -0.00180   2.07783
    A3        2.09813  -0.00015   0.00000  -0.00054  -0.00054   2.09759
    A4        2.11364  -0.00015   0.00000  -0.00081  -0.00081   2.11283
    A5        2.08375   0.00009   0.00000   0.00048   0.00048   2.08423
    A6        2.08579   0.00006   0.00000   0.00033   0.00033   2.08612
    A7        2.07521  -0.00001   0.00000  -0.00039  -0.00039   2.07482
    A8        2.08867   0.00001   0.00000   0.00024   0.00024   2.08891
    A9        2.11930   0.00000   0.00000   0.00015   0.00015   2.11945
   A10        2.11523   0.00032   0.00000   0.00130   0.00130   2.11653
   A11        2.08998  -0.00017   0.00000  -0.00072  -0.00072   2.08926
   A12        2.07797  -0.00015   0.00000  -0.00058  -0.00058   2.07739
   A13        2.08206  -0.00001   0.00000   0.00004   0.00004   2.08209
   A14        2.08745  -0.00066   0.00000  -0.00268  -0.00268   2.08477
   A15        2.11359   0.00067   0.00000   0.00264   0.00264   2.11623
   A16        2.07478  -0.00067   0.00000  -0.00248  -0.00248   2.07231
   A17        2.08905  -0.00028   0.00000  -0.00117  -0.00117   2.08788
   A18        2.11913   0.00094   0.00000   0.00370   0.00370   2.12283
   A19        2.05617   0.00034   0.00000   0.00135   0.00134   2.05751
   A20        2.05986  -0.00013   0.00000  -0.00051  -0.00052   2.05934
   A21        2.16716  -0.00021   0.00000  -0.00082  -0.00083   2.16633
   A22        2.05512  -0.00004   0.00000   0.00007   0.00007   2.05519
   A23        2.06359   0.00027   0.00000   0.00201   0.00201   2.06560
   A24        2.01778  -0.00015   0.00000  -0.00050  -0.00050   2.01728
   A25        2.09767   0.00020   0.00000   0.00069   0.00068   2.09835
   A26        2.11506   0.00036   0.00000   0.00134   0.00133   2.11639
   A27        2.07028  -0.00057   0.00000  -0.00218  -0.00219   2.06810
   A28        2.10733   0.00022   0.00000   0.00106   0.00107   2.10840
   A29        2.08165   0.00001   0.00000   0.00022   0.00022   2.08187
   A30        2.09419  -0.00023   0.00000  -0.00128  -0.00128   2.09291
   A31        2.10568   0.00024   0.00000   0.00116   0.00116   2.10684
   A32        2.08519   0.00000   0.00000   0.00018   0.00018   2.08537
   A33        2.09213  -0.00024   0.00000  -0.00134  -0.00134   2.09080
   A34        2.09712   0.00009   0.00000   0.00025   0.00025   2.09738
   A35        2.08948   0.00000   0.00000   0.00012   0.00012   2.08960
   A36        2.09658  -0.00008   0.00000  -0.00037  -0.00037   2.09620
   A37        2.09798   0.00007   0.00000   0.00018   0.00018   2.09815
   A38        2.08924  -0.00001   0.00000   0.00006   0.00006   2.08930
   A39        2.09594  -0.00006   0.00000  -0.00026  -0.00026   2.09568
   A40        2.08797  -0.00005   0.00000  -0.00046  -0.00047   2.08750
   A41        2.09763   0.00005   0.00000   0.00036   0.00036   2.09799
   A42        2.09758   0.00001   0.00000   0.00011   0.00011   2.09769
    D1       -0.00238   0.00001   0.00000   0.00068   0.00068  -0.00169
    D2        3.13801   0.00000   0.00000   0.00007   0.00007   3.13808
    D3       -3.13295   0.00003   0.00000   0.00130   0.00130  -3.13165
    D4        0.00743   0.00002   0.00000   0.00069   0.00069   0.00812
    D5        0.01184   0.00000   0.00000  -0.00025  -0.00024   0.01160
    D6        3.13102   0.00006   0.00000   0.00255   0.00254   3.13356
    D7       -3.14089  -0.00002   0.00000  -0.00087  -0.00087   3.14142
    D8       -0.02171   0.00004   0.00000   0.00192   0.00191  -0.01980
    D9       -0.00500  -0.00002   0.00000  -0.00062  -0.00062  -0.00562
   D10        3.13990   0.00000   0.00000  -0.00024  -0.00024   3.13966
   D11        3.13780   0.00000   0.00000  -0.00001  -0.00001   3.13779
   D12       -0.00048   0.00001   0.00000   0.00037   0.00037  -0.00011
   D13       -3.13776   0.00006   0.00000   0.00582   0.00582  -3.13195
   D14        0.00567   0.00001   0.00000   0.00047   0.00047   0.00615
   D15        0.00264   0.00005   0.00000   0.00522   0.00522   0.00786
   D16       -3.13711   0.00000   0.00000  -0.00013  -0.00013  -3.13724
   D17        0.00266   0.00000   0.00000   0.00011   0.00011   0.00277
   D18       -3.13478   0.00002   0.00000   0.00060   0.00060  -3.13418
   D19        3.14088  -0.00001   0.00000  -0.00028  -0.00027   3.14061
   D20        0.00344   0.00001   0.00000   0.00021   0.00021   0.00365
   D21        0.00683   0.00001   0.00000   0.00033   0.00033   0.00716
   D22        3.13482   0.00001   0.00000   0.00022   0.00022   3.13504
   D23       -3.13889   0.00000   0.00000  -0.00016  -0.00016  -3.13904
   D24       -0.01089   0.00000   0.00000  -0.00026  -0.00026  -0.01116
   D25       -0.01396  -0.00001   0.00000  -0.00024  -0.00024  -0.01420
   D26       -3.13273  -0.00005   0.00000  -0.00301  -0.00302  -3.13575
   D27        3.14144   0.00000   0.00000  -0.00008  -0.00008   3.14136
   D28        0.02267  -0.00005   0.00000  -0.00286  -0.00286   0.01981
   D29        0.31070  -0.00006   0.00000  -0.00230  -0.00230   0.30840
   D30        2.87308   0.00002   0.00000   0.00036   0.00036   2.87344
   D31       -2.84474  -0.00007   0.00000  -0.00243  -0.00244  -2.84718
   D32       -0.28236   0.00002   0.00000   0.00022   0.00022  -0.28214
   D33       -0.97107   0.00009   0.00000   0.00576   0.00577  -0.96530
   D34        2.15023  -0.00008   0.00000  -0.00291  -0.00291   2.14732
   D35        2.14752   0.00013   0.00000   0.00854   0.00855   2.15608
   D36       -1.01436  -0.00003   0.00000  -0.00012  -0.00013  -1.01449
   D37        3.12163  -0.00013   0.00000  -0.00688  -0.00688   3.11476
   D38       -0.02468  -0.00010   0.00000  -0.00572  -0.00571  -0.03039
   D39       -0.00018   0.00002   0.00000   0.00153   0.00152   0.00134
   D40        3.13669   0.00005   0.00000   0.00269   0.00269   3.13938
   D41       -3.11999   0.00011   0.00000   0.00571   0.00571  -3.11428
   D42        0.00131   0.00010   0.00000   0.00564   0.00564   0.00695
   D43        0.00162  -0.00005   0.00000  -0.00279  -0.00279  -0.00117
   D44        3.12292  -0.00005   0.00000  -0.00286  -0.00286   3.12006
   D45        0.00118  -0.00001   0.00000  -0.00064  -0.00064   0.00054
   D46        3.13982   0.00003   0.00000   0.00093   0.00093   3.14075
   D47       -3.13566  -0.00004   0.00000  -0.00182  -0.00182  -3.13748
   D48        0.00298   0.00000   0.00000  -0.00025  -0.00025   0.00273
   D49       -0.00406   0.00007   0.00000   0.00318   0.00318  -0.00088
   D50        3.12930   0.00001   0.00000   0.00057   0.00057   3.12987
   D51       -3.12528   0.00007   0.00000   0.00323   0.00323  -3.12205
   D52        0.00808   0.00001   0.00000   0.00062   0.00062   0.00870
   D53       -0.00358   0.00003   0.00000   0.00098   0.00098  -0.00260
   D54       -3.14080   0.00001   0.00000   0.00040   0.00040  -3.14040
   D55        3.14098  -0.00001   0.00000  -0.00060  -0.00060   3.14038
   D56        0.00376  -0.00003   0.00000  -0.00118  -0.00118   0.00258
   D57        0.00501  -0.00006   0.00000  -0.00224  -0.00224   0.00277
   D58       -3.14096  -0.00004   0.00000  -0.00166  -0.00166   3.14057
   D59       -3.12832   0.00000   0.00000   0.00038   0.00038  -3.12794
   D60        0.00890   0.00002   0.00000   0.00096   0.00096   0.00986
         Item               Value     Threshold  Converged?
 Maximum Force            0.001702     0.000015     NO 
 RMS     Force            0.000292     0.000010     NO 
 Maximum Displacement     0.037258     0.000060     NO 
 RMS     Displacement     0.008777     0.000040     NO 
 Predicted change in Energy=-2.046363D-05
 GradGradGradGradGradGradGradGradGradGradGradGradGradGradGradGradGradGrad

                          Input orientation:                          
[...]
 038469,0.00000108,0.00003111,0.00007088,-0.00003837,0.00003365,0.00000
 372,-0.00001849,0.00001071,-0.00003243,0.00003064,-0.00001099,0.000022
 14,0.00003731,0.00001433,-0.00002230,-0.00097615,-0.00112254,0.0001663
 9,-0.00038838,0.00005658,0.00013015,0.00006048,0.00080401,-0.00083502,
 0.00050445,-0.06385357,-0.06627795,-0.31528623,-0.05516408,0.04327006,
 -0.06828055,0.00172168,0.02872894,0.64654446,-0.00009741,-0.00047173,0
 .00025378,-0.00020040,0.00008749,0.00021633,-0.00014353,0.00008202,-0.
 00006017,0.00010666,0.00021602,0.00031400,-0.00016508,0.00022371,0.000
 06358,-0.00128634,0.00093073,-0.00550357,-0.00022470,0.00021189,-0.000
 25293,0.00001444,0.00001624,-0.00002072,0.00001284,-0.00001296,-0.0000
 4753,-0.00013140,-0.00027805,0.00004167,0.00005399,0.00008730,-0.00002
 412,0.00006771,0.00016600,0.00000332,0.00019875,-0.00023970,0.00006474
 ,-0.00002983,0.00002863,0.00006538,0.00003067,-0.00011091,-0.00031736,
 -0.02695730,-0.00819077,-0.00698924,-0.10494295,-0.12679497,-0.0193775
 1,0.00196187,-0.00434673,0.00267406,0.12009791,0.45167173,0.00074568,0
 .00057297,0.00022645,-0.00035818,-0.00027889,0.00001008,0.00006451,0.0
 0025970,-0.00001875,0.00023678,-0.00050897,0.00017229,-0.00161437,-0.0
 0062927,-0.00038362,0.00113922,-0.00588731,0.00072818,0.00012189,-0.00
 007726,-0.00021986,-0.00001414,-0.00000233,-0.00003917,-0.00010136,-0.
 00004080,0.00000075,-0.00000935,0.00002211,-0.00003854,0.00002482,-0.0
 0002534,0.00001836,0.00002572,-0.00002320,0.00002484,-0.00006078,0.000
 78912,0.00030220,0.00010702,-0.00007614,-0.00012716,0.00005515,-0.0003
 0173,-0.00006467,-0.02672445,0.01020090,0.02941099,-0.00913959,-0.0403
 7827,-0.10835820,0.02870111,0.00212860,-0.01639093,-0.08245238,0.28275
 758,0.48861997,-0.00012885,-0.00027269,-0.00033774,-0.00003006,0.00005
 092,0.00006689,0.00004267,-0.00005936,-0.00000106,-0.00011480,0.000092
 16,0.00001350,0.00054298,-0.00005719,0.00002880,0.00027972,0.00053207,
 -0.00131094,-0.00021083,-0.00002965,-0.00025016,0.00000038,0.00000502,
 0.00000767,0.00002172,0.00001734,0.00002178,-0.00014139,-0.00001313,-0
 .00004752,0.00008932,0.00000176,-0.00000260,0.00006572,0.00001683,0.00
 003077,-0.00011782,0.00013669,-0.00007811,-0.00000352,-0.00000099,-0.0
 0000249,0.00000898,0.00001568,0.00001779,0.00853816,-0.00408532,-0.006
 46088,-0.17328183,0.06095949,0.12563094,0.00088846,-0.00287235,-0.0007
 7185,-0.01409394,0.01228417,0.02110506,0.18177242,0.00006398,0.0006379
 5,0.00023700,-0.00036590,-0.00030201,0.00005918,-0.00000718,0.00035706
 ,-0.00006596,0.00030892,-0.00024542,-0.00001361,-0.00049422,-0.0009028
 7,-0.00006796,0.00260708,-0.00092541,0.00217665,0.00010585,0.00006981,
 -0.00009274,-0.00001464,0.00000652,-0.00002062,-0.00002335,-0.00000117
 ,0.00001027,-0.00005929,0.00028975,-0.00003495,0.00000748,-0.00009389,
 0.00001811,0.00001940,-0.00020801,0.00000712,-0.00027746,0.00026847,0.
 00021817,-0.00001855,-0.00005092,-0.00005969,0.00008403,0.00005457,-0.
 00016321,0.01461582,-0.00415601,-0.01542056,0.06027024,-0.08672526,-0.
 07779983,-0.00313725,0.00041528,-0.00549364,-0.00779228,0.00826793,0.0
 0781274,-0.06350270,0.08282651,-0.00018073,-0.00068572,0.00011304,-0.0
 0035374,0.00023900,0.00014321,0.00003701,0.00012093,-0.00005313,0.0000
 9260,0.00011387,-0.00002063,0.00027726,-0.00050359,0.00026791,-0.00006
 291,0.00276139,-0.00094442,-0.00034397,0.00027246,-0.00040786,0.000004
 20,0.00002913,-0.00001326,0.00001322,0.00001413,-0.00002105,-0.0002577
 6,-0.00023505,0.00002224,0.00015067,0.00006991,-0.00001606,0.00013607,
 0.00013639,0.00001019,-0.00023124,0.00023518,0.00004021,-0.00003424,-0
 .00000463,-0.00001446,0.00007304,0.00009176,-0.00011678,0.01465210,-0.
 00671410,-0.00937932,0.12474003,-0.07851738,-0.17993131,-0.00106977,-0
 .00560369,0.00122958,-0.00101867,-0.00080015,0.00378995,-0.13654650,0.
 08884631,0.18370060,-0.00089854,0.00046850,0.00011846,0.00006031,-0.00
 048319,0.00014171,-0.00032641,0.00036814,0.00004295,0.00073581,-0.0002
 4541,-0.00018454,-0.00216374,0.00052908,-0.00100221,0.00253051,0.00118
 635,0.00297750,0.00018327,-0.00032860,-0.00005707,0.00000959,-0.000023
 37,-0.00002875,-0.00003562,-0.00006140,0.00004457,-0.00009566,0.000117
 68,-0.00007000,0.00000628,0.00000615,0.00001447,-0.00003335,-0.0000890
 8,0.00000505,0.00158596,0.00110865,-0.00036150,0.00053134,-0.00009014,
 -0.00015807,-0.00065624,-0.00107574,0.00118599,-0.04496341,0.03268811,
 0.05854183,-0.04248997,-0.03335569,-0.02122842,-0.31438434,-0.10577067
 ,-0.00870512,0.06510202,0.01224089,-0.01078689,-0.00041185,-0.00065732
 ,-0.00074699,0.66930913,-0.00127188,0.00010956,0.00000660,-0.00002508,
 0.00031263,0.00056562,0.00010862,-0.00016376,0.00003511,-0.00015800,0.
 00005004,0.00007563,0.00080670,-0.00077519,-0.00055041,0.00195892,0.00
 377776,-0.00534862,0.00011672,-0.00031846,-0.00034890,-0.00000900,-0.0
 0002013,-0.00004046,0.00004101,-0.00000024,-0.00000388,0.00004460,-0.0
 0006377,0.00006190,-0.00003726,0.00000223,-0.00003869,-0.00002370,0.00
 003296,0.00000325,-0.00007521,0.00089938,0.00053961,0.00014887,-0.0000
 1356,-0.00004461,-0.00025883,-0.00058922,0.00005246,-0.00442082,0.0405
 1613,0.03780314,-0.03325255,-0.03358880,-0.01433005,-0.05725031,-0.126
 04052,-0.04007840,0.04896832,-0.00996578,-0.04197786,-0.00050096,-0.00
 096264,0.00042885,0.08934452,0.42051089,0.00127952,0.00069093,-0.00022
 307,-0.00006984,-0.00042746,0.00043735,-0.00011786,0.00008675,-0.00003
 884,0.00021933,-0.00004750,-0.00010630,-0.00074138,-0.00065027,-0.0000
 8158,0.00325147,-0.00510508,-0.00003212,0.00002831,-0.00011859,-0.0002
 5674,0.00000816,0.00000575,-0.00002144,-0.00001820,-0.00001088,0.00001
 009,0.00016228,-0.00004765,0.00005879,0.00001676,0.00000127,-0.0000267
 3,-0.00000410,0.00005949,0.00001085,-0.00018351,0.00091967,0.00005497,
 0.00013476,-0.00000592,-0.00008385,-0.00001055,-0.00016707,0.00020086,
 0.01822672,0.02194946,0.02493712,-0.02131274,-0.01424288,-0.01346816,0
 .04442314,-0.01855244,-0.10912004,0.02915041,-0.02616247,-0.03195272,-
 0.00076694,0.00032892,-0.00027826,-0.13055132,0.26513707,0.49505138,-0
 .00050462,0.00010292,-0.00009202,0.00026184,0.00012495,0.00003102,0.00
 006954,-0.00015013,0.00001801,-0.00025081,0.00002454,-0.00010936,0.000
 21040,-0.00014900,0.00037520,0.00111220,0.00104642,-0.00107719,0.00001
 243,-0.00000655,0.00003898,-0.00000506,-0.00000424,0.00000871,0.000014
 42,0.00001634,0.00002708,-0.00018111,0.00022730,-0.00001594,0.00009678
 ,-0.00004605,0.00000187,0.00002634,-0.00012298,0.00000539,-0.00037261,
 -0.00046431,0.00049504,-0.00008796,-0.00003419,0.00003855,0.00020754,-
 0.00002075,-0.00019678,0.00995788,0.01467738,0.01402814,-0.00189057,0.
 00044250,0.00434151,-0.08368864,-0.06091250,-0.05052591,-0.00112120,0.
 00034186,0.00041689,0.00041273,0.00079891,0.00072205,-0.00375872,-0.02
 153007,-0.02086151,0.08367055,0.00062229,0.00007447,-0.00001961,0.0001
 0170,-0.00028276,-0.00006119,-0.00009576,0.00011428,-0.00001768,0.0002
 6694,-0.00002424,-0.00018487,-0.00063598,0.00044447,0.00012952,-0.0001
 5931,-0.00203671,0.00227491,-0.00000194,0.00001032,-0.00000234,0.00000
 611,0.00000372,0.00001391,-0.00001008,-0.00002022,0.00000433,-0.000037
 30,0.00010171,-0.00001847,0.00004280,-0.00000769,0.00000690,-0.0000017
 6,-0.00005045,0.00002309,0.00012860,-0.00052334,0.00029907,-0.00004533
 ,0.00004103,0.00019435,-0.00035974,-0.00019217,0.00041967,-0.00414091,
 -0.00392132,-0.00695981,0.00079083,0.00371840,-0.00386796,-0.06047849,
 -0.18368987,-0.13751639,0.00033991,-0.00010576,0.00083792,-0.00024348,
 -0.00019983,-0.00035003,-0.00175763,-0.00314881,-0.00763422,0.06801971
 ,0.18818052,0.00012511,-0.00018920,0.00013611,-0.00038074,0.00034568,-
 0.00003947,0.00014225,-0.00020862,0.00002470,-0.00047868,0.00025653,0.
 00001435,0.00226165,-0.00139309,-0.00018505,-0.00146292,0.00257190,-0.
 00108605,-0.00006175,0.00002127,-0.00002916,-0.00000695,0.00000875,-0.
 00000565,0.00005776,0.00002637,-0.00000849,0.00029065,-0.00039674,0.00
 003902,-0.00014112,0.00005259,-0.00000877,-0.00001609,0.00022940,-0.00
 002322,-0.00129375,0.00053523,0.00105378,-0.00022242,0.00006431,0.0000
 8989,0.00014678,0.00010389,-0.00155440,-0.00811779,-0.01501589,-0.0095
 9523,0.00452968,-0.00376063,0.00097452,-0.04958050,-0.13712299,-0.1736
 3045,0.00046445,0.00077400,-0.00041726,-0.00037799,-0.00079916,-0.0004
 6161,0.00163645,0.00135646,0.00487421,0.05208205,0.15215859,0.17741467
 ,0.00011839,-0.00059215,-0.00045343,-0.00038579,-0.00015111,0.00027992
 ,-0.00020573,0.00021780,-0.00002493,0.00025842,-0.00008499,-0.00005992
 ,-0.00062141,0.00079592,0.00013503,-0.00075834,0.00049880,-0.00050563,
 0.00006366,-0.00016559,-0.00008771,0.00000962,-0.00000844,-0.00001605,
 -0.00004063,-0.00003214,0.00001399,0.00023093,-0.00041258,0.00011654,-
 0.00018268,0.00010906,-0.00004012,-0.00006887,0.00022897,-0.00002862,0
 .00045630,-0.00028593,-0.00007554,0.00004365,0.00003624,0.00003136,-0.
 00030656,-0.00001686,0.00019048,-0.00213933,0.01164437,0.01145454,-0.0
 4423257,-0.00407324,0.01912948,0.00004563,-0.02702944,-0.02699215,-0.2
 1948300,0.05966077,0.12884904,-0.00397485,-0.00378385,0.00084303,-0.15
 024179,-0.08132337,-0.05375727,-0.00455674,-0.00340548,0.00172513,0.71
 166944,0.00052063,-0.00031507,0.00005601,-0.00001497,0.00013510,-0.000
 20593,0.00001387,-0.00009210,-0.00003262,-0.00014956,0.00000704,0.0000
 1492,0.00028082,0.00029078,0.00048240,-0.00044692,-0.00119243,0.000415
 71,-0.00012820,0.00018451,0.00017140,0.00000511,0.00001206,0.00003670,
 -0.00002740,0.00001255,-0.00001900,0.00008563,-0.00017656,0.00003013,-
 0.00004381,0.00004278,-0.00000357,-0.00000527,0.00011879,-0.00002215,-
 0.00035678,-0.00089895,-0.00006216,-0.00021228,0.00004810,0.00009285,-
 0.00003488,0.00053469,-0.00038224,0.01270646,-0.03496221,-0.03509868,0
 .03278715,0.04220428,0.02184433,-0.06436475,-0.00799116,0.00851449,0.0
 1096389,-0.13043110,-0.07132042,-0.00410226,0.00358264,-0.00285754,-0.
 03296287,-0.20529036,-0.13549185,-0.00299076,0.00419941,-0.00241473,0.
 13193271,0.42052460,0.00038582,-0.00025842,0.00039977,0.00006050,0.000
 29422,-0.00035146,0.00012303,-0.00018180,-0.00004156,-0.00030625,0.000
 12505,0.00009113,0.00098550,-0.00025952,0.00050913,-0.00050742,-0.0002
 1127,-0.00052838,-0.00019456,0.00035395,0.00018645,0.00000037,0.000021
 94,0.00004147,0.00000520,0.00003441,-0.00001575,-0.00002013,-0.0000122
 1,0.00000440,0.00001717,-0.00000617,0.00000900,0.00003361,0.00001209,-
 0.00000248,-0.00084247,-0.00110546,0.00006574,-0.00035389,0.00007139,0
 .00017227,0.00005247,0.00069950,-0.00068921,0.01168618,-0.03498054,-0.
 05113139,0.05896216,0.03821657,0.02477141,-0.06664179,-0.00688735,0.03
 041244,0.07535663,-0.09233426,-0.20113144,0.00039212,-0.00276395,0.004
 16387,-0.00055175,-0.11385902,-0.19419495,0.00206347,-0.00238192,0.004
 11454,-0.09887313,0.24474676,0.45321569,0.00010341,-0.00005795,0.00003
 607,-0.00013558,-0.00000916,0.00004497,-0.00006752,0.00005128,-0.00001
 183,0.00007141,-0.00008183,0.00008253,-0.00045954,0.00008269,-0.000019
 52,0.00013436,-0.00087758,-0.00081226,-0.00000880,-0.00002155,-0.00005
 466,0.00000358,-0.00000204,-0.00000799,-0.00003327,-0.00001636,-0.0000
 0581,0.00007688,-0.00021384,0.00002188,-0.00005134,0.00005554,-0.00000
 760,-0.00001449,0.00012959,0.00000045,0.00007831,-0.00007812,-0.000025
 90,0.00000149,0.00000407,0.00000075,-0.00002149,0.00002861,0.00000600,
 -0.00445293,-0.00293236,0.00175514,-0.00376079,-0.02192390,-0.02060072
 ,-0.00124870,0.00037577,0.00051745,-0.08293611,-0.06131409,-0.04843616
 ,0.00065837,0.00139043,-0.00064129,-0.00161362,0.00037729,0.00430805,-
 0.00000107,0.00019095,-0.00025455,0.01072148,0.01546768,0.01409534,0.0
 8213901,0.00002584,-0.00006795,0.00007865,-0.00003361,-0.00000659,-0.0
 0000295,-0.00005343,0.00001454,-0.00001291,0.00004687,-0.00002696,0.00
 003428,-0.00024871,0.00014461,-0.00006743,0.00012840,-0.00026015,-0.00
 030812,0.00004108,0.00001245,0.00001019,0.00000229,-0.00000007,-0.0000
 0021,-0.00001151,-0.00001173,0.00000259,0.00007410,-0.00005388,0.00000
 700,-0.00006250,0.00001159,-0.00000094,-0.00002382,0.00002580,0.000000
 12,0.00010163,-0.00011650,0.00001529,-0.00000994,0.00000896,0.00000974
 ,-0.00000857,0.00001143,-0.00004088,-0.00312207,0.00428792,-0.00226523
 ,-0.00168460,-0.00339742,-0.00764052,0.00036525,-0.00014000,0.00081378
 ,-0.06152776,-0.19018710,-0.13766506,0.00083724,-0.00174669,0.00246677
 ,0.00079494,0.00403507,-0.00416212,0.00020725,-0.00057704,0.00047455,-
 0.00480874,-0.00375814,-0.00671583,0.06804789,0.19383874,0.00001555,-0
 .00002084,-0.00007720,-0.00007352,0.00000944,0.00002306,-0.00000123,0.
 00000861,0.00000820,-0.00001255,-0.00000892,-0.00001137,0.00002598,-0.
 00003110,-0.00000570,0.00009797,0.00010207,0.00007541,-0.00002401,-0.0
 0004874,-0.00001886,0.00000126,-0.00000234,-0.00000316,-0.00000519,0.0
 0000088,-0.00000061,0.00005136,-0.00011614,0.00001432,-0.00002293,0.00
 002912,-0.00000481,-0.00001001,0.00007206,-0.00000812,-0.00004797,0.00
 005022,0.00000962,0.00000499,0.00000054,-0.00001388,0.00001084,0.00002
 750,0.00000802,0.00177239,-0.00245789,0.00426952,0.00159894,0.00100332
 ,0.00465237,0.00047987,0.00079202,-0.00036921,-0.04839253,-0.13769302,
 -0.16949531,-0.00121182,0.00225548,-0.00139829,0.00455264,-0.00409315,
 0.00108784,-0.00025461,0.00048160,-0.00046127,-0.00811932,-0.01516193,
 -0.00876983,0.05072092,0.15296124,0.17221258,-0.00013119,-0.00020016,0
 .00005281,-0.00012418,-0.00001373,-0.00006645,-0.00010450,0.00009684,0
 .00000202,0.00014110,-0.00004898,-0.00002687,-0.00034031,0.00023408,-0
 .00008510,-0.00026211,0.00079493,0.00086549,0.00002705,0.00000206,0.00
 003767,0.00000348,-0.00000119,0.00000082,-0.00001989,-0.00001756,0.000
 01105,0.00008745,-0.00014461,-0.00000083,-0.00009426,0.00003809,-0.000
 00003,-0.00003187,0.00006936,-0.00001237,0.00022608,-0.00018825,-0.000
 06357,0.00000053,0.00001238,0.00001815,-0.00005980,0.00006435,0.000087
 19,-0.00385336,-0.00406647,0.00065148,-0.00056956,-0.00062779,-0.00088
 907,-0.01415438,0.01197829,0.02153322,0.00125923,-0.00303397,-0.000549
 24,-0.00006891,0.00027449,-0.00013931,-0.17359158,0.05979066,0.1253080
 6,0.00067420,0.00087745,-0.00121488,0.01037259,-0.00422051,-0.00737020
 ,0.00031008,-0.00026379,-0.00039133,0.17995149,-0.00016083,-0.00003904
 ,0.00003118,-0.00001007,-0.00002699,-0.00005599,-0.00001645,0.00002920
 ,-0.00000557,0.00004493,-0.00001681,0.00000239,-0.00010769,0.00019409,
 -0.00000734,-0.00033443,0.00025623,0.00033565,-0.00001997,-0.00001471,
 0.00002060,-0.00000024,0.00000048,0.00000301,-0.00000776,-0.00000307,-
 0.00000012,-0.00003293,0.00002646,-0.00000864,0.00000342,-0.00000195,0
 .00000434,0.00000089,-0.00001952,0.00000719,0.00008557,-0.00018065,-0.
 00003644,-0.00000289,0.00001092,0.00004093,-0.00003780,0.00002060,0.00
 003013,-0.00365436,0.00351937,-0.00293399,-0.00050701,-0.00093294,0.00
 030925,-0.00801999,0.00805792,0.00811107,-0.00347308,0.00087426,-0.005
 69756,0.00025308,-0.00047513,0.00050362,0.06007675,-0.08623978,-0.0781
 4500,0.00140751,-0.00182837,0.00223566,0.01579800,-0.00339265,-0.01539
 075,0.00074479,-0.00032405,-0.00066932,-0.06279961,0.08207497,0.000040
 71,0.00003689,-0.00004190,0.00003804,0.00002774,0.00001680,0.00001800,
 -0.00002255,0.00001092,-0.00002669,0.00001801,-0.00001432,0.00008282,-
 0.00017792,-0.00002764,0.00001985,-0.00004570,0.00003477,0.00000795,0.
 00002178,-0.00001453,-0.00000108,0.00000064,-0.00000361,0.00000912,0.0
 0000385,0.00000222,-0.00004318,0.00001553,-0.00000542,0.00003716,-0.00
 000369,0.00000116,0.00001786,-0.00000235,0.00000059,-0.00002431,0.0002
 1368,0.00000496,0.00002450,-0.00002053,-0.00004116,0.00004884,-0.00007
 478,0.00001934,0.00049349,-0.00264043,0.00444627,-0.00098681,0.0002914
 8,-0.00025432,-0.00062617,-0.00097126,0.00322845,-0.00076412,-0.005848
 58,0.00121427,-0.00012464,0.00046919,-0.00044896,0.12536971,-0.0785700
 3,-0.18213037,-0.00065201,0.00249790,-0.00131341,0.01471969,-0.0059666
 2,-0.00887060,0.00069594,-0.00026799,-0.00053797,-0.13724383,0.0887132
 2,0.18587205,-0.00000774,-0.00003397,-0.00000754,-0.00001930,0.0000332
 5,-0.00000771,-0.00001641,-0.00002879,0.00000689,-0.00003106,0.0000106
 2,0.00001152,0.00005013,0.00005742,-0.00002261,-0.00005008,0.00018359,
 -0.00023615,0.00001967,-0.00001658,0.00002373,0.00000215,-0.00000240,0
 .00000131,-0.00000180,-0.00000446,-0.00000222,0.00009718,-0.00008404,0
 .00000971,-0.00006377,0.00001787,-0.00000278,-0.00002935,0.00004750,-0
 .00001021,-0.00000721,-0.00006231,0.00005033,-0.00001277,0.00001356,0.
 00000899,0.00000253,0.00002469,-0.00004752,0.00047789,0.00059775,0.000
 01830,-0.00019041,0.00087411,0.00426779,0.00186854,-0.00236592,-0.0002
 0059,-0.01449246,-0.00854551,-0.00134598,-0.00074300,-0.00041266,-0.00
 011419,-0.00438935,-0.00156922,0.00187826,-0.00030775,-0.00001409,0.00
 014816,-0.30679182,-0.09470272,0.01144200,0.00050688,0.00118628,-0.000
 76570,0.00035262,0.00077015,-0.00113085,0.32377669,0.00012705,0.000052
 56,0.00005147,-0.00006366,-0.00004939,-0.00002339,-0.00001301,0.000047
 12,-0.00000776,0.00005111,-0.00002807,-0.00001218,-0.00007629,-0.00013
 259,-0.00002651,0.00025458,-0.00037533,0.00059025,0.00000208,-0.000005
 23,-0.00000648,-0.00000037,0.00000133,-0.00000211,-0.00000565,-0.00000
 357,0.00000548,0.00004119,-0.00001002,-0.00000228,-0.00002469,-0.00000
 218,0.00000268,-0.00000755,0.00000026,0.00000307,-0.00006473,0.0000465
 4,0.00002940,-0.00001350,0.00000256,-0.00001188,0.00000921,0.00005385,
 -0.00005569,0.00051972,-0.00091269,-0.00022899,0.00051813,0.00330079,-
 0.00481047,-0.00186198,0.00092047,-0.00628901,0.01185253,0.00827161,-0
 .00049124,0.00053760,0.00021877,-0.00005782,-0.02202867,-0.00306561,0.
 00179210,-0.00100607,-0.00027973,0.00008586,-0.09474873,-0.08339661,-0
 .00722742,0.00058221,-0.00171685,0.00250928,0.00139364,-0.00156883,0.0
 0230251,0.10402586,0.07863085,-0.00007482,-0.00008824,-0.00001293,-0.0
 0001183,0.00007117,0.00000609,0.00001631,-0.00004156,0.00000107,-0.000
 06073,0.00004342,0.00000727,0.00023347,-0.00003147,0.00001730,-0.00025
 961,0.00055604,-0.00036278,-0.00002135,0.00002716,-0.00000942,0.000000
 30,0.00000168,0.00000171,0.00000757,0.00000485,-0.00000759,-0.00000841
 ,-0.00004769,0.00000261,0.00000497,0.00001164,-0.00000283,0.00000768,0
 .00003110,-0.00000216,-0.00008065,-0.00002451,0.00008190,-0.00001635,0
 .00000671,0.00001611,0.00001192,-0.00000187,-0.00007296,0.00013427,-0.
 00031759,-0.00132898,0.00391049,-0.00492196,0.00054167,-0.00002432,-0.
 00612329,0.00069165,0.02071192,0.00820321,0.00411932,0.00097593,0.0003
 5676,0.00002462,-0.02019870,-0.00678164,0.00529170,-0.00090864,-0.0003
 2728,0.00008371,0.01154560,-0.00736626,-0.05243025,-0.00140721,0.00227
 599,-0.00118532,-0.00051488,0.00260250,-0.00114758,-0.01397294,0.01188
 112,0.04567610\\0.00000085,0.00000007,-0.00000007,0.,-0.00000033,0.000
 00004,-0.00000005,0.00000014,-0.00000035,-0.00000013,-0.00000009,-0.00
 000038,-0.00000032,0.00000129,-0.00000061,-0.00000103,-0.00000139,0.00
 000007,-0.00000023,-0.00000003,0.00000039,0.,-0.00000003,-0.00000042,0
 .00000011,0.,-0.00000048,-0.00000031,0.00000025,-0.00000014,0.00000054
 ,0.00000010,-0.00000013,-0.00000034,-0.00000016,0.00000029,0.00000030,
 -0.00000014,-0.00000183,0.00000019,-0.00000015,-0.00000009,0.00000014,
 -0.00000025,0.00000037,0.00000172,0.00000073,-0.00000023,-0.00000060,-
 0.00000033,0.00000031,-0.00000178,-0.00000027,0.00000058,-0.00000033,-
 0.00000003,0.00000051,0.00000012,-0.00000031,0.00000037,0.00000094,0.0
 0000079,0.00000031,0.00000036,0.00000032,0.,0.,-0.00000035,0.00000014,
 -0.00000006,-0.00000027,0.00000059,-0.00000004,0.00000031,0.00000022,-
 0.00000009,0.00000014,0.00000052\\\@


 ... THIS SEEMS PLAINLY ABSURD; BUT WHOEVER WISHES TO BECOME A 
 PHILOSOPHER MUST LEARN NOT TO BE FRIGHTENED BY ABSURDITIES.

                          -- BERTRAND RUSSELL
 Job cpu time:  2 days  3 hours 55 minutes 42.4 seconds.
 File lengths (MBytes):  RWF=   1368 Int=      0 D2E=      0 Chk=     28 Scr=      1
 Normal termination of Gaussian 09 at Thu Jan 12 06:26:04 2023.
