 Entering Gaussian System, Link 0=g09
 Initial command:
 /apps/software//g09/l1.exe /scratch/matheusmaximo/75399.cluster.abaxnet/Gau-19175.inp -scrdir=/scratch/matheusmaximo/75399.cluster.abaxnet/
 Entering Link 1 = /apps/software//g09/l1.exe PID=     19176.
  
 Copyright (c) 1988,1990,1992,1993,1995,1998,2003,2009, Gaussian, Inc.
                  All Rights Reserved.
  
 This is part of the Gaussian(R) 09 program.  It is based on
 the Gaussian(R) 03 system (copyright 2003, Gaussian, Inc.),
 the Gaussian(R) 98 system (copyright 1998, Gaussian, Inc.),
 the Gaussian(R) 94 system (copyright 1995, Gaussian, Inc.),
 the Gaussian 92(TM) system (copyright 1992, Gaussian, Inc.),
 the Gaussian 90(TM) system (copyright 1990, Gaussian, Inc.),
 the Gaussian 88(TM) system (copyright 1988, Gaussian, Inc.),
 the Gaussian 86(TM) system (copyright 1986, Carnegie Mellon
 University), and the Gaussian 82(TM) system (copyright 1983,
 Carnegie Mellon University). Gaussian is a federally registered
 trademark of Gaussian, Inc.
  
 This software contains proprietary and confidential information,
 including trade secrets, belonging to Gaussian, Inc.
  
 This software is provided under written license and may be
 used, copied, transmitted, or stored only in accord with that
 written license.
  
 The following legend is applicable only to US Government
 contracts under FAR:
  
                    RESTRICTED RIGHTS LEGEND
  
 Use, reproduction and disclosure by the US Government is
 subject to restrictions as set forth in subparagraphs (a)
 and (c) of the Commercial Computer Software - Restricted
 Rights clause in FAR 52.227-19.
  
 Gaussian, Inc.
 340 Quinnipiac St., Bldg. 40, Wallingford CT 06492
  
  
 ---------------------------------------------------------------
 Warning -- This program may not be used in any manner that
 competes with the business of Gaussian, Inc. or will provide
 assistance to any competitor of Gaussian, Inc.  The licensee
 of this program is prohibited from giving any competitor of
 Gaussian, Inc. access to this program.  By using this program,
 the user acknowledges that Gaussian, Inc. is engaged in the
 business of creating and licensing software in the field of
 computational chemistry and represents and warrants to the
 licensee that it is not a competitor of Gaussian, Inc. and that
 it will not use this program in any manner prohibited above.
 ---------------------------------------------------------------
  

 Cite this work as:
 Gaussian 09, Revision A.02,
 M. J. Frisch, G. W. Trucks, H. B. Schlegel, G. E. Scuseria, 
 M. A. Robb, J. R. Cheeseman, G. Scalmani, V. Barone, B. Mennucci, 
 G. A. Petersson, H. Nakatsuji, M. Caricato, X. Li, H. P. Hratchian, 
 A. F. Izmaylov, J. Bloino, G. Zheng, J. L. Sonnenberg, M. Hada, 
 M. Ehara, K. Toyota, R. Fukuda, J. Hasegawa, M. Ishida, T. Nakajima, 
 Y. Honda, O. Kitao, H. Nakai, T. Vreven, J. A. Montgomery, Jr., 
 J. E. Peralta, F. Ogliaro, M. Bearpark, J. J. Heyd, E. Brothers, 
 K. N. Kudin, V. N. Staroverov, R. Kobayashi, J. Normand, 
 K. Raghavachari, A. Rendell, J. C. Burant, S. S. Iyengar, J. Tomasi, 
 M. Cossi, N. Rega, J. M. Millam, M. Klene, J. E. Knox, J. B. Cross, 
 V. Bakken, C. Adamo, J. Jaramillo, R. Gomperts, R. E. Stratmann, 
 O. Yazyev, A. J. Austin, R. Cammi, C. Pomelli, J. W. Ochterski, 
 R. L. Martin, K. Morokuma, V. G. Zakrzewski, G. A. Voth, 
 P. Salvador, J. J. Dannenberg, S. Dapprich, A. D. Daniels, 
 O. Farkas, J. B. Foresman, J. V. Ortiz, J. Cioslowski, 
 and D. J. Fox, Gaussian, Inc., Wallingford CT, 2009.
 
 ******************************************
 Gaussian 09:  EM64L-G09RevA.02 11-Jun-2009
                15-Mar-2023 
 ******************************************
 %chk=/home/matheusmaximo/Gaussian/SINGLEPOINT/C6H5/pna_SP.chk
 ----------------------------------------------------
 # td=(nstates=15) cam-b3lyp/gen scf=qc int=ultrafine
 ----------------------------------------------------
 1/38=1/1;
 2/12=2,17=6,18=5,40=1/2;
 3/5=7,11=2,16=1,25=1,30=1,74=-40,75=-5/1,2,8,3;
 4//1;
 5/5=2,8=3,38=5/8;
 8/6=1,10=1,108=15/1;
 9/41=15,42=1/14;
 6/7=2,8=2,9=2,10=2/1;
 99/5=1,9=1/99;
 -----------------------------------------
 NA+C6H5 CAM-B3LYP def2-TZVPD Single point
 -----------------------------------------
 Symbolic Z-matrix:
 Charge =  0 Multiplicity = 1
 C                     0.86142  -0.5409    0.07332 
 C                     2.17902  -0.12489   0.04049 
 C                     2.50186   1.21316  -0.09869 
 C                     1.48706   2.13147  -0.21225 
 C                     0.14426   1.73754  -0.18571 
 C                    -0.17151   0.37221  -0.03052 
 H                     0.64686  -1.59237   0.19316 
 H                     3.53811   1.51397  -0.11943 
 H                     1.72387   3.18138  -0.32912 
 N                     3.24299  -1.1111    0.15695 
 O                     4.39159  -0.71249   0.13703 
 O                     2.92808  -2.28036   0.26629 
 N                    -0.83843   2.68634  -0.2952 
 H                    -0.58033   3.58798  -0.65515 
 H                    -1.77295   2.38421  -0.50978 
 C                    -1.57772  -0.10455  -0.00112 
 C                    -2.00383  -1.08526  -0.89224 
 C                    -2.48883   0.3877    0.93073 
 C                    -3.3031   -1.5613   -0.85438 
 H                    -1.30813  -1.47415  -1.6246 
 C                    -3.78819  -0.08848   0.96896 
 H                    -2.1698    1.13624   1.64448 
 C                    -4.19997  -1.06331   0.07547 
 H                    -3.61557  -2.32341  -1.556 
 H                    -4.47896   0.29764   1.707 
 H                    -5.21525  -1.43564   0.10621 
 
                          Input orientation:                          
 ---------------------------------------------------------------------
 Center     Atomic      Atomic             Coordinates (Angstroms)
 Number     Number       Type             X           Y           Z
 ---------------------------------------------------------------------
      1          6           0        0.861423   -0.540897    0.073324
      2          6           0        2.179017   -0.124893    0.040485
      3          6           0        2.501861    1.213155   -0.098693
      4          6           0        1.487060    2.131466   -0.212250
      5          6           0        0.144261    1.737542   -0.185714
      6          6           0       -0.171509    0.372212   -0.030518
      7          1           0        0.646863   -1.592374    0.193165
      8          1           0        3.538111    1.513972   -0.119430
      9          1           0        1.723868    3.181384   -0.329120
     10          7           0        3.242987   -1.111103    0.156948
     11          8           0        4.391590   -0.712492    0.137035
     12          8           0        2.928078   -2.280357    0.266291
     13          7           0       -0.838426    2.686336   -0.295197
     14          1           0       -0.580334    3.587981   -0.655152
     15          1           0       -1.772947    2.384211   -0.509780
     16          6           0       -1.577722   -0.104551   -0.001116
     17          6           0       -2.003826   -1.085263   -0.892244
     18          6           0       -2.488829    0.387699    0.930732
     19          6           0       -3.303097   -1.561296   -0.854375
     20          1           0       -1.308132   -1.474147   -1.624603
     21          6           0       -3.788192   -0.088485    0.968961
     22          1           0       -2.169803    1.136242    1.644483
     23          6           0       -4.199969   -1.063307    0.075470
     24          1           0       -3.615566   -2.323415   -1.556003
     25          1           0       -4.478961    0.297642    1.706996
     26          1           0       -5.215251   -1.435642    0.106215
 ---------------------------------------------------------------------
                    Distance matrix (angstroms):
                    1          2          3          4          5
     1  C    0.000000
     2  C    1.382097   0.000000
     3  C    2.407763   1.383464   0.000000
     4  C    2.759438   2.373570   1.373321   0.000000
     5  C    2.402645   2.767681   2.416781   1.399639   0.000000
     6  C    1.382570   2.403565   2.803344   2.424634   1.409937
     7  H    1.079816   2.127042   3.375973   3.838917   3.388879
     8  H    3.379985   2.135085   1.079228   2.143997   3.401851
     9  H    3.842024   3.357862   2.128919   1.082619   2.144855
    10  N    2.450300   1.455405   2.452916   3.705920   4.223067
    11  O    3.534909   2.291304   2.708276   4.079999   4.913922
    12  O    2.708139   2.293056   3.538291   4.665803   4.908916
    13  N    3.666106   4.137711   3.656008   2.392205   1.370355
    14  H    4.433619   4.677966   3.930569   2.567434   2.041944
    15  H    3.979469   4.713429   4.451331   3.283299   2.049119
    16  C    2.478985   3.757024   4.288225   3.799637   2.528361
    17  C    3.072183   4.391864   5.119928   4.795417   3.616862
    18  C    3.580730   4.779548   5.162178   4.489413   3.162545
    19  C    4.386920   5.737387   6.478131   6.082304   4.818062
    20  H    2.908760   4.093070   4.905716   4.775803   3.807203
    21  C    4.756655   6.039121   6.511446   5.843948   4.486852
    22  H    3.803901   4.803697   4.986885   4.220258   3.010992
    23  C    5.088281   6.447737   7.080052   6.529292   5.175453
    24  H    5.086798   6.399959   7.214846   6.905682   5.701348
    25  H    5.647277   6.876370   7.268463   6.529917   5.199023
    26  H    6.142281   7.509833   8.161613   7.599122   6.235278
                    6          7          8          9         10
     6  C    0.000000
     7  H    2.139946   0.000000
     8  H    3.882370   4.255163   0.000000
     9  H    3.401920   4.921533   2.472996   0.000000
    10  N    3.727485   2.640604   2.656031   4.579239   0.000000
    11  O    4.693243   3.847119   2.398196   4.743027   1.215968
    12  O    4.090434   2.383822   3.862364   5.624522   1.215845
    13  N    2.422809   4.555431   4.534248   2.609900   5.593113
    14  H    3.301284   5.390894   4.642209   2.362407   6.112175
    15  H    2.615805   4.707743   5.396019   3.591078   6.149905
    16  C    1.485128   2.683308   5.367063   4.669631   4.927206
    17  C    2.494833   2.908853   6.169791   5.693601   5.350749
    18  C    2.508828   3.781172   6.220557   5.209484   5.974852
    19  C    3.771477   4.086623   7.536547   6.931038   6.639025
    20  H    2.691108   2.672128   5.889013   5.704847   4.900858
    21  C    3.780423   4.746921   7.578072   6.539103   7.151404
    22  H    2.717085   4.181540   5.986179   4.820622   6.046619
    23  C    4.277902   4.877043   8.158323   7.298832   7.443555
    24  H    4.631959   4.665010   8.244051   7.766442   7.172423
    25  H    4.645284   5.669032   8.311963   7.137004   8.000980
    26  H    5.359699   5.864854   9.239723   8.346126   8.464613
                   11         12         13         14         15
    11  O    0.000000
    12  O    2.148668   0.000000
    13  N    6.252354   6.258583   0.000000
    14  H    6.621304   6.898942   1.004561   0.000000
    15  H    6.928886   6.667842   1.005314   1.700742   0.000000
    16  C    6.001780   5.010775   2.902085   3.880379   2.547703
    17  C    6.488429   5.205202   3.992441   4.890987   3.498118
    18  C    7.012884   6.074774   3.083904   4.049591   2.563907
    19  C    7.804586   6.371850   4.942638   5.828223   4.245837
    20  H    6.014177   4.708602   4.392900   5.205254   4.042995
    21  C    8.245624   7.099741   4.242505   5.142422   3.515980
    22  H    6.981554   6.289749   2.817395   3.718301   2.521066
    23  C    8.598939   7.233718   5.049474   5.938859   4.256563
    24  H    8.341223   6.792782   5.865130   6.705876   5.162516
    25  H    9.064867   7.974079   4.792508   5.621865   4.073128
    26  H    9.634069   8.188588   6.025648   6.877421   5.178820
                   16         17         18         19         20
    16  C    0.000000
    17  C    1.391930   0.000000
    18  C    1.393114   2.393342   0.000000
    19  C    2.413933   1.384250   2.765542   0.000000
    20  H    2.141070   1.082391   3.374945   2.140264   0.000000
    21  C    2.414019   2.764347   1.384398   2.393543   3.846730
    22  H    2.144324   3.376036   1.082375   3.847773   4.271244
    23  C    2.793073   2.399999   2.401019   1.384552   3.379609
    24  H    3.390256   2.138061   3.847535   1.082009   2.459718
    25  H    3.390663   3.846397   2.138065   3.376230   4.928787
    26  H    3.874912   3.381263   3.381978   2.143561   4.273498
                   21         22         23         24         25
    21  C    0.000000
    22  H    2.139035   0.000000
    23  C    1.384979   3.379555   0.000000
    24  H    3.376412   4.929764   2.142686   0.000000
    25  H    1.082105   2.457513   2.142871   4.273471   0.000000
    26  H    2.143749   4.272658   1.081839   2.471862   2.471619
                   26
    26  H    0.000000
 Stoichiometry    C12H10N2O2
 Framework group  C1[X(C12H10N2O2)]
 Deg. of freedom    72
 Full point group                 C1      NOp   1
 Largest Abelian subgroup         C1      NOp   1
 Largest concise Abelian subgroup C1      NOp   1
                         Standard orientation:                         
 ---------------------------------------------------------------------
 Center     Atomic      Atomic             Coordinates (Angstroms)
 Number     Number       Type             X           Y           Z
 ---------------------------------------------------------------------
      1          6           0        0.861423   -0.540897    0.073324
      2          6           0        2.179017   -0.124893    0.040485
      3          6           0        2.501861    1.213155   -0.098693
      4          6           0        1.487060    2.131466   -0.212250
      5          6           0        0.144261    1.737542   -0.185714
      6          6           0       -0.171509    0.372212   -0.030518
      7          1           0        0.646863   -1.592374    0.193165
      8          1           0        3.538111    1.513972   -0.119430
      9          1           0        1.723868    3.181384   -0.329120
     10          7           0        3.242987   -1.111103    0.156948
     11          8           0        4.391590   -0.712492    0.137035
     12          8           0        2.928078   -2.280357    0.266291
     13          7           0       -0.838426    2.686336   -0.295197
     14          1           0       -0.580334    3.587981   -0.655152
     15          1           0       -1.772947    2.384211   -0.509780
     16          6           0       -1.577722   -0.104551   -0.001116
     17          6           0       -2.003826   -1.085263   -0.892244
     18          6           0       -2.488829    0.387699    0.930732
     19          6           0       -3.303097   -1.561296   -0.854375
     20          1           0       -1.308132   -1.474147   -1.624603
     21          6           0       -3.788192   -0.088485    0.968961
     22          1           0       -2.169803    1.136242    1.644483
     23          6           0       -4.199969   -1.063307    0.075470
     24          1           0       -3.615566   -2.323415   -1.556003
     25          1           0       -4.478961    0.297642    1.706996
     26          1           0       -5.215251   -1.435642    0.106215
 ---------------------------------------------------------------------
 Rotational constants (GHZ):      1.0470214      0.3198324      0.2590066
 General basis read from cards:  (5D, 7F)
 There are   688 symmetry adapted basis functions of A   symmetry.
 Integral buffers will be    131072 words long.
 Raffenetti 2 integral format.
 Two-electron integral symmetry is turned on.
   688 basis functions,  1044 primitive gaussians,   784 cartesian basis functions
    56 alpha electrons       56 beta electrons
       nuclear repulsion energy      1009.5245913260 Hartrees.
 NAtoms=   26 NActive=   26 NUniq=   26 SFac= 7.50D-01 NAtFMM=   80 NAOKFM=F Big=F
 One-electron integrals computed using PRISM.
 NBasis=   688 RedAO= T  NBF=   688
 NBsUse=   681 1.00D-06 NBFU=   681
 Harris functional with IExCor=20419 diagonalized for initial guess.
 ExpMin= 4.85D-02 ExpMax= 2.70D+04 ExpMxC= 9.22D+02 IAcc=3 IRadAn=         5 AccDes= 0.00D+00
 HarFok:  IExCor=20419 AccDes= 0.00D+00 IRadAn=         5 IDoV= 1
 ScaDFX=  1.000000  1.000000  1.000000  1.000000
 FoFCou: FMM=F IPFlag=           0 FMFlag=      100000 FMFlg1=           0
         NFxFlg=           0 DoJE=T BraDBF=F KetDBF=T FulRan=T
         Omega=  0.000000  0.000000  1.000000  0.000000  0.000000 ICntrl=     500 IOpCl=  0
         NMat0=    1 NMatS0=    1 NMatT0=    0 NMatD0=    1 NMtDS0=    0 NMtDT0=    0
         I1Cent=           4 NGrid=           0.
 Petite list used in FoFCou.
 Initial guess orbital symmetries:
       Occupied  (A) (A) (A) (A) (A) (A) (A) (A) (A) (A) (A) (A)
                 (A) (A) (A) (A) (A) (A) (A) (A) (A) (A) (A) (A)
                 (A) (A) (A) (A) (A) (A) (A) (A) (A) (A) (A) (A)
                 (A) (A) (A) (A) (A) (A) (A) (A) (A) (A) (A) (A)
                 (A) (A) (A) (A) (A) (A) (A) (A)
       Virtual   (A) (A) (A) (A) (A) (A) (A) (A) (A) (A) (A) (A)
                 (A) (A) (A) (A) (A) (A) (A) (A) (A) (A) (A) (A)
                 (A) (A) (A) (A) (A) (A) (A) (A) (A) (A) (A) (A)
                 (A) (A) (A) (A) (A) (A) (A) (A) (A) (A) (A) (A)
                 (A) (A) (A) (A) (A) (A) (A) (A) (A) (A) (A) (A)
                 (A) (A) (A) (A) (A) (A) (A) (A) (A) (A) (A) (A)
                 (A) (A) (A) (A) (A) (A) (A) (A) (A) (A) (A) (A)
                 (A) (A) (A) (A) (A) (A) (A) (A) (A) (A) (A) (A)
                 (A) (A) (A) (A) (A) (A) (A) (A) (A) (A) (A) (A)
                 (A) (A) (A) (A) (A) (A) (A) (A) (A) (A) (A) (A)
                 (A) (A) (A) (A) (A) (A) (A) (A) (A) (A) (A) (A)
                 (A) (A) (A) (A) (A) (A) (A) (A) (A) (A) (A) (A)
                 (A) (A) (A) (A) (A) (A) (A) (A) (A) (A) (A) (A)
                 (A) (A) (A) (A) (A) (A) (A) (A) (A) (A) (A) (A)
                 (A) (A) (A) (A) (A) (A) (A) (A) (A) (A) (A) (A)
                 (A) (A) (A) (A) (A) (A) (A) (A) (A) (A) (A) (A)
                 (A) (A) (A) (A) (A) (A) (A) (A) (A) (A) (A) (A)
                 (A) (A) (A) (A) (A) (A) (A) (A) (A) (A) (A) (A)
                 (A) (A) (A) (A) (A) (A) (A) (A) (A) (A) (A) (A)
                 (A) (A) (A) (A) (A) (A) (A) (A) (A) (A) (A) (A)
                 (A) (A) (A) (A) (A) (A) (A) (A) (A) (A) (A) (A)
                 (A) (A) (A) (A) (A) (A) (A) (A) (A) (A) (A) (A)
                 (A) (A) (A) (A) (A) (A) (A) (A) (A) (A) (A) (A)
                 (A) (A) (A) (A) (A) (A) (A) (A) (A) (A) (A) (A)
                 (A) (A) (A) (A) (A) (A) (A) (A) (A) (A) (A) (A)
                 (A) (A) (A) (A) (A) (A) (A) (A) (A) (A) (A) (A)
                 (A) (A) (A) (A) (A) (A) (A) (A) (A) (A) (A) (A)
                 (A) (A) (A) (A) (A) (A) (A) (A) (A) (A) (A) (A)
                 (A) (A) (A) (A) (A) (A) (A) (A) (A) (A) (A) (A)
                 (A) (A) (A) (A) (A) (A) (A) (A) (A) (A) (A) (A)
                 (A) (A) (A) (A) (A) (A) (A) (A) (A) (A) (A) (A)
                 (A) (A) (A) (A) (A) (A) (A) (A) (A) (A) (A) (A)
                 (A) (A) (A) (A) (A) (A) (A) (A) (A) (A) (A) (A)
                 (A) (A) (A) (A) (A) (A) (A) (A) (A) (A) (A) (A)
                 (A) (A) (A) (A) (A) (A) (A) (A) (A) (A) (A) (A)
                 (A) (A) (A) (A) (A) (A) (A) (A) (A) (A) (A) (A)
                 (A) (A) (A) (A) (A) (A) (A) (A) (A) (A) (A) (A)
                 (A) (A) (A) (A) (A) (A) (A) (A) (A) (A) (A) (A)
                 (A) (A) (A) (A) (A) (A) (A) (A) (A) (A) (A) (A)
                 (A) (A) (A) (A) (A) (A) (A) (A) (A) (A) (A) (A)
                 (A) (A) (A) (A) (A) (A) (A) (A) (A) (A) (A) (A)
                 (A) (A) (A) (A) (A) (A) (A) (A) (A) (A) (A) (A)
                 (A) (A) (A) (A) (A) (A) (A) (A) (A) (A) (A) (A)
                 (A) (A) (A) (A) (A) (A) (A) (A) (A) (A) (A) (A)
                 (A) (A) (A) (A) (A) (A) (A) (A) (A) (A) (A) (A)
                 (A) (A) (A) (A) (A) (A) (A) (A) (A) (A) (A) (A)
                 (A) (A) (A) (A) (A) (A) (A) (A) (A) (A) (A) (A)
                 (A) (A) (A) (A) (A) (A) (A) (A) (A) (A) (A) (A)
                 (A) (A) (A) (A) (A) (A) (A) (A) (A) (A) (A) (A)
                 (A) (A) (A) (A) (A) (A) (A) (A) (A) (A) (A) (A)
                 (A) (A) (A) (A) (A) (A) (A) (A) (A) (A) (A) (A)
                 (A) (A) (A) (A) (A) (A) (A) (A) (A) (A) (A) (A)
                 (A)
 The electronic state of the initial guess is 1-A.
 FoFJK:  IHMeth= 1 ICntrl=     0 DoSepK=T KAlg= 1 I1Cent= 0 FoldK=F
 Gradient too large for Newton-Raphson -- use scaled steepest descent instead.
 FoFJK:  IHMeth= 1 ICntrl=     0 DoSepK=T KAlg= 1 I1Cent= 0 FoldK=F
 FoFJK:  IHMeth= 1 ICntrl=     0 DoSepK=T KAlg= 1 I1Cent= 0 FoldK=F
 FoFJK:  IHMeth= 1 ICntrl=     0 DoSepK=T KAlg= 1 I1Cent= 0 FoldK=F
 FoFJK:  IHMeth= 1 ICntrl=     0 DoSepK=T KAlg= 1 I1Cent= 0 FoldK=F
 Gradient too large for Newton-Raphson -- use scaled steepest descent instead.
 FoFJK:  IHMeth= 1 ICntrl=     0 DoSepK=T KAlg= 1 I1Cent= 0 FoldK=F
 FoFJK:  IHMeth= 1 ICntrl=     0 DoSepK=T KAlg= 1 I1Cent= 0 FoldK=F
 FoFJK:  IHMeth= 1 ICntrl=     0 DoSepK=T KAlg= 1 I1Cent= 0 FoldK=F
 FoFJK:  IHMeth= 1 ICntrl=     0 DoSepK=T KAlg= 1 I1Cent= 0 FoldK=F
 Gradient too large for Newton-Raphson -- use scaled steepest descent instead.
 FoFJK:  IHMeth= 1 ICntrl=     0 DoSepK=T KAlg= 1 I1Cent= 0 FoldK=F
 FoFJK:  IHMeth= 1 ICntrl=     0 DoSepK=T KAlg= 1 I1Cent= 0 FoldK=F
 FoFJK:  IHMeth= 1 ICntrl=     0 DoSepK=T KAlg= 1 I1Cent= 0 FoldK=F
 Gradient too large for Newton-Raphson -- use scaled steepest descent instead.
 FoFJK:  IHMeth= 1 ICntrl=     0 DoSepK=T KAlg= 1 I1Cent= 0 FoldK=F
 FoFJK:  IHMeth= 1 ICntrl=     0 DoSepK=T KAlg= 1 I1Cent= 0 FoldK=F
 FoFJK:  IHMeth= 1 ICntrl=     0 DoSepK=T KAlg= 1 I1Cent= 0 FoldK=F
 FoFJK:  IHMeth= 1 ICntrl=     0 DoSepK=T KAlg= 1 I1Cent= 0 FoldK=F
 Gradient too large for Newton-Raphson -- use scaled steepest descent instead.
 FoFJK:  IHMeth= 1 ICntrl=     0 DoSepK=T KAlg= 1 I1Cent= 0 FoldK=F
 FoFJK:  IHMeth= 1 ICntrl=     0 DoSepK=T KAlg= 1 I1Cent= 0 FoldK=F
 FoFJK:  IHMeth= 1 ICntrl=     0 DoSepK=T KAlg= 1 I1Cent= 0 FoldK=F
 Gradient too large for Newton-Raphson -- use scaled steepest descent instead.
 FoFJK:  IHMeth= 1 ICntrl=     0 DoSepK=T KAlg= 1 I1Cent= 0 FoldK=F
 FoFJK:  IHMeth= 1 ICntrl=     0 DoSepK=T KAlg= 1 I1Cent= 0 FoldK=F
 FoFJK:  IHMeth= 1 ICntrl=     0 DoSepK=T KAlg= 1 I1Cent= 0 FoldK=F
 FoFJK:  IHMeth= 1 ICntrl=     0 DoSepK=T KAlg= 1 I1Cent= 0 FoldK=F
 LinEq1:  Iter=  0 NonCon=     1 RMS=3.50D-05 Max=2.36D-03
 AX will form     1 AO Fock derivatives at one time.
 FoFJK:  IHMeth= 1 ICntrl=     0 DoSepK=T KAlg= 1 I1Cent= 0 FoldK=F
 LinEq1:  Iter=  1 NonCon=     1 RMS=3.72D-05 Max=4.62D-03
 FoFJK:  IHMeth= 1 ICntrl=     0 DoSepK=T KAlg= 1 I1Cent= 0 FoldK=F
 LinEq1:  Iter=  2 NonCon=     1 RMS=8.02D-06 Max=9.04D-04
 FoFJK:  IHMeth= 1 ICntrl=     0 DoSepK=T KAlg= 1 I1Cent= 0 FoldK=F
 LinEq1:  Iter=  3 NonCon=     1 RMS=6.81D-06 Max=3.59D-04
 FoFJK:  IHMeth= 1 ICntrl=     0 DoSepK=T KAlg= 1 I1Cent= 0 FoldK=F
 LinEq1:  Iter=  4 NonCon=     1 RMS=1.57D-06 Max=8.82D-05
 FoFJK:  IHMeth= 1 ICntrl=     0 DoSepK=T KAlg= 1 I1Cent= 0 FoldK=F
 LinEq1:  Iter=  5 NonCon=     1 RMS=1.20D-06 Max=6.82D-05
 FoFJK:  IHMeth= 1 ICntrl=     0 DoSepK=T KAlg= 1 I1Cent= 0 FoldK=F
 LinEq1:  Iter=  6 NonCon=     1 RMS=2.03D-07 Max=1.27D-05
 FoFJK:  IHMeth= 1 ICntrl=     0 DoSepK=T KAlg= 1 I1Cent= 0 FoldK=F
 LinEq1:  Iter=  7 NonCon=     1 RMS=1.59D-07 Max=8.88D-06
 FoFJK:  IHMeth= 1 ICntrl=     0 DoSepK=T KAlg= 1 I1Cent= 0 FoldK=F
 LinEq1:  Iter=  8 NonCon=     1 RMS=4.08D-08 Max=2.14D-06
 FoFJK:  IHMeth= 1 ICntrl=     0 DoSepK=T KAlg= 1 I1Cent= 0 FoldK=F
 LinEq1:  Iter=  9 NonCon=     1 RMS=2.66D-08 Max=1.37D-06
 FoFJK:  IHMeth= 1 ICntrl=     0 DoSepK=T KAlg= 1 I1Cent= 0 FoldK=F
 LinEq1:  Iter= 10 NonCon=     1 RMS=1.12D-08 Max=5.51D-07
 FoFJK:  IHMeth= 1 ICntrl=     0 DoSepK=T KAlg= 1 I1Cent= 0 FoldK=F
 LinEq1:  Iter= 11 NonCon=     1 RMS=5.93D-09 Max=3.05D-07
 FoFJK:  IHMeth= 1 ICntrl=     0 DoSepK=T KAlg= 1 I1Cent= 0 FoldK=F
 LinEq1:  Iter= 12 NonCon=     0 RMS=2.06D-09 Max=5.58D-08
 Linear equations converged to 2.646D-08 2.646D-07 after    12 iterations.
 FoFJK:  IHMeth= 1 ICntrl=     0 DoSepK=T KAlg= 1 I1Cent= 0 FoldK=F
 FoFJK:  IHMeth= 1 ICntrl=     0 DoSepK=T KAlg= 1 I1Cent= 0 FoldK=F
 FoFJK:  IHMeth= 1 ICntrl=     0 DoSepK=T KAlg= 1 I1Cent= 0 FoldK=F
 LinEq1:  Iter=  0 NonCon=     1 RMS=1.53D-07 Max=1.01D-05
 FoFJK:  IHMeth= 1 ICntrl=     0 DoSepK=T KAlg= 1 I1Cent= 0 FoldK=F
 LinEq1:  Iter=  1 NonCon=     1 RMS=7.43D-08 Max=5.52D-06
 FoFJK:  IHMeth= 1 ICntrl=     0 DoSepK=T KAlg= 1 I1Cent= 0 FoldK=F
 LinEq1:  Iter=  2 NonCon=     1 RMS=1.88D-08 Max=8.20D-07
 FoFJK:  IHMeth= 1 ICntrl=     0 DoSepK=T KAlg= 1 I1Cent= 0 FoldK=F
 LinEq1:  Iter=  3 NonCon=     1 RMS=1.10D-08 Max=5.57D-07
 FoFJK:  IHMeth= 1 ICntrl=     0 DoSepK=T KAlg= 1 I1Cent= 0 FoldK=F
 LinEq1:  Iter=  4 NonCon=     1 RMS=6.43D-09 Max=3.91D-07
 FoFJK:  IHMeth= 1 ICntrl=     0 DoSepK=T KAlg= 1 I1Cent= 0 FoldK=F
 LinEq1:  Iter=  5 NonCon=     1 RMS=3.19D-09 Max=2.79D-07
 FoFJK:  IHMeth= 1 ICntrl=     0 DoSepK=T KAlg= 1 I1Cent= 0 FoldK=F
 LinEq1:  Iter=  6 NonCon=     1 RMS=2.12D-09 Max=1.92D-07
 FoFJK:  IHMeth= 1 ICntrl=     0 DoSepK=T KAlg= 1 I1Cent= 0 FoldK=F
 LinEq1:  Iter=  7 NonCon=     1 RMS=2.29D-09 Max=1.71D-07
 FoFJK:  IHMeth= 1 ICntrl=     0 DoSepK=T KAlg= 1 I1Cent= 0 FoldK=F
 LinEq1:  Iter=  8 NonCon=     1 RMS=1.44D-09 Max=5.23D-08
 FoFJK:  IHMeth= 1 ICntrl=     0 DoSepK=T KAlg= 1 I1Cent= 0 FoldK=F
 LinEq1:  Iter=  9 NonCon=     1 RMS=9.13D-10 Max=4.16D-08
 FoFJK:  IHMeth= 1 ICntrl=     0 DoSepK=T KAlg= 1 I1Cent= 0 FoldK=F
 LinEq1:  Iter= 10 NonCon=     1 RMS=5.27D-10 Max=2.91D-08
 FoFJK:  IHMeth= 1 ICntrl=     0 DoSepK=T KAlg= 1 I1Cent= 0 FoldK=F
 LinEq1:  Iter= 11 NonCon=     1 RMS=3.21D-10 Max=1.60D-08
 FoFJK:  IHMeth= 1 ICntrl=     0 DoSepK=T KAlg= 1 I1Cent= 0 FoldK=F
 LinEq1:  Iter= 12 NonCon=     1 RMS=1.81D-10 Max=7.00D-09
 FoFJK:  IHMeth= 1 ICntrl=     0 DoSepK=T KAlg= 1 I1Cent= 0 FoldK=F
 LinEq1:  Iter= 13 NonCon=     1 RMS=1.42D-10 Max=4.95D-09
 FoFJK:  IHMeth= 1 ICntrl=     0 DoSepK=T KAlg= 1 I1Cent= 0 FoldK=F
 LinEq1:  Iter= 14 NonCon=     1 RMS=9.37D-11 Max=3.47D-09
 FoFJK:  IHMeth= 1 ICntrl=     0 DoSepK=T KAlg= 1 I1Cent= 0 FoldK=F
 LinEq1:  Iter= 15 NonCon=     0 RMS=7.73D-11 Max=1.97D-09
 Linear equations converged to 3.206D-10 3.206D-09 after    15 iterations.
 FoFJK:  IHMeth= 1 ICntrl=     0 DoSepK=T KAlg= 1 I1Cent= 0 FoldK=F
 SCF Done:  E(RCAM-B3LYP) =  -723.091586591     a.u. after    9 cycles
            Convg  =    0.6153D-06                    54 Fock formations.
              S**2 =  0.0000                  -V/T =  2.0040
 ExpMin= 4.85D-02 ExpMax= 2.70D+04 ExpMxC= 9.22D+02 IAcc=3 IRadAn=         5 AccDes= 0.00D+00
 HarFok:  IExCor=  205 AccDes= 0.00D+00 IRadAn=         5 IDoV=-2
 ScaDFX=  1.000000  1.000000  1.000000  1.000000
 Range of M.O.s used for correlation:    17   681
 NBasis=   688 NAE=    56 NBE=    56 NFC=    16 NFV=     0
 NROrb=    665 NOA=    40 NOB=    40 NVA=   625 NVB=   625

 **** Warning!!: The largest alpha MO coefficient is  0.12219128D+03

 Would need an additional142596500000 words for in-memory AO integral storage.
 Orbital symmetries:
       Occupied  (A) (A) (A) (A) (A) (A) (A) (A) (A) (A) (A) (A)
                 (A) (A) (A) (A) (A) (A) (A) (A) (A) (A) (A) (A)
                 (A) (A) (A) (A) (A) (A) (A) (A) (A) (A) (A) (A)
                 (A) (A) (A) (A) (A) (A) (A) (A) (A) (A) (A) (A)
                 (A) (A) (A) (A) (A) (A) (A) (A)
       Virtual   (A) (A) (A) (A) (A) (A) (A) (A) (A) (A) (A) (A)
                 (A) (A) (A) (A) (A) (A) (A) (A) (A) (A) (A) (A)
                 (A) (A) (A) (A) (A) (A) (A) (A) (A) (A) (A) (A)
                 (A) (A) (A) (A) (A) (A) (A) (A) (A) (A) (A) (A)
                 (A) (A) (A) (A) (A) (A) (A) (A) (A) (A) (A) (A)
                 (A) (A) (A) (A) (A) (A) (A) (A) (A) (A) (A) (A)
                 (A) (A) (A) (A) (A) (A) (A) (A) (A) (A) (A) (A)
                 (A) (A) (A) (A) (A) (A) (A) (A) (A) (A) (A) (A)
                 (A) (A) (A) (A) (A) (A) (A) (A) (A) (A) (A) (A)
                 (A) (A) (A) (A) (A) (A) (A) (A) (A) (A) (A) (A)
                 (A) (A) (A) (A) (A) (A) (A) (A) (A) (A) (A) (A)
                 (A) (A) (A) (A) (A) (A) (A) (A) (A) (A) (A) (A)
                 (A) (A) (A) (A) (A) (A) (A) (A) (A) (A) (A) (A)
                 (A) (A) (A) (A) (A) (A) (A) (A) (A) (A) (A) (A)
                 (A) (A) (A) (A) (A) (A) (A) (A) (A) (A) (A) (A)
                 (A) (A) (A) (A) (A) (A) (A) (A) (A) (A) (A) (A)
                 (A) (A) (A) (A) (A) (A) (A) (A) (A) (A) (A) (A)
                 (A) (A) (A) (A) (A) (A) (A) (A) (A) (A) (A) (A)
                 (A) (A) (A) (A) (A) (A) (A) (A) (A) (A) (A) (A)
                 (A) (A) (A) (A) (A) (A) (A) (A) (A) (A) (A) (A)
                 (A) (A) (A) (A) (A) (A) (A) (A) (A) (A) (A) (A)
                 (A) (A) (A) (A) (A) (A) (A) (A) (A) (A) (A) (A)
                 (A) (A) (A) (A) (A) (A) (A) (A) (A) (A) (A) (A)
                 (A) (A) (A) (A) (A) (A) (A) (A) (A) (A) (A) (A)
                 (A) (A) (A) (A) (A) (A) (A) (A) (A) (A) (A) (A)
                 (A) (A) (A) (A) (A) (A) (A) (A) (A) (A) (A) (A)
                 (A) (A) (A) (A) (A) (A) (A) (A) (A) (A) (A) (A)
                 (A) (A) (A) (A) (A) (A) (A) (A) (A) (A) (A) (A)
                 (A) (A) (A) (A) (A) (A) (A) (A) (A) (A) (A) (A)
                 (A) (A) (A) (A) (A) (A) (A) (A) (A) (A) (A) (A)
                 (A) (A) (A) (A) (A) (A) (A) (A) (A) (A) (A) (A)
                 (A) (A) (A) (A) (A) (A) (A) (A) (A) (A) (A) (A)
                 (A) (A) (A) (A) (A) (A) (A) (A) (A) (A) (A) (A)
                 (A) (A) (A) (A) (A) (A) (A) (A) (A) (A) (A) (A)
                 (A) (A) (A) (A) (A) (A) (A) (A) (A) (A) (A) (A)
                 (A) (A) (A) (A) (A) (A) (A) (A) (A) (A) (A) (A)
                 (A) (A) (A) (A) (A) (A) (A) (A) (A) (A) (A) (A)
                 (A) (A) (A) (A) (A) (A) (A) (A) (A) (A) (A) (A)
                 (A) (A) (A) (A) (A) (A) (A) (A) (A) (A) (A) (A)
                 (A) (A) (A) (A) (A) (A) (A) (A) (A) (A) (A) (A)
                 (A) (A) (A) (A) (A) (A) (A) (A) (A) (A) (A) (A)
                 (A) (A) (A) (A) (A) (A) (A) (A) (A) (A) (A) (A)
                 (A) (A) (A) (A) (A) (A) (A) (A) (A) (A) (A) (A)
                 (A) (A) (A) (A) (A) (A) (A) (A) (A) (A) (A) (A)
                 (A) (A) (A) (A) (A) (A) (A) (A) (A) (A) (A) (A)
                 (A) (A) (A) (A) (A) (A) (A) (A) (A) (A) (A) (A)
                 (A) (A) (A) (A) (A) (A) (A) (A) (A) (A) (A) (A)
                 (A) (A) (A) (A) (A) (A) (A) (A) (A) (A) (A) (A)
                 (A) (A) (A) (A) (A) (A) (A) (A) (A) (A) (A) (A)
                 (A) (A) (A) (A) (A) (A) (A) (A) (A) (A) (A) (A)
                 (A) (A) (A) (A) (A) (A) (A) (A) (A) (A) (A) (A)
                 (A) (A) (A) (A) (A) (A) (A) (A) (A) (A) (A) (A)
                 (A)
    60 initial guesses have been made.
 Convergence on wavefunction:    0.001000000000000
 Iteration     1 Dimension    60 NMult    60
 CISAX will form    10 AO SS matrices at one time.
 FoFJK:  IHMeth= 1 ICntrl=     0 DoSepK=T KAlg= 1 I1Cent= 0 FoldK=F
 FoFJK:  IHMeth= 1 ICntrl=     0 DoSepK=T KAlg= 1 I1Cent= 0 FoldK=F
 FoFJK:  IHMeth= 1 ICntrl=     0 DoSepK=T KAlg= 1 I1Cent= 0 FoldK=F
 FoFJK:  IHMeth= 1 ICntrl=     0 DoSepK=T KAlg= 1 I1Cent= 0 FoldK=F
 FoFJK:  IHMeth= 1 ICntrl=     0 DoSepK=T KAlg= 1 I1Cent= 0 FoldK=F
 FoFJK:  IHMeth= 1 ICntrl=     0 DoSepK=T KAlg= 1 I1Cent= 0 FoldK=F
 FoFJK:  IHMeth= 1 ICntrl=     0 DoSepK=T KAlg= 1 I1Cent= 0 FoldK=F
 FoFJK:  IHMeth= 1 ICntrl=     0 DoSepK=T KAlg= 1 I1Cent= 0 FoldK=F
 FoFJK:  IHMeth= 1 ICntrl=     0 DoSepK=T KAlg= 1 I1Cent= 0 FoldK=F
 FoFJK:  IHMeth= 1 ICntrl=     0 DoSepK=T KAlg= 1 I1Cent= 0 FoldK=F
 FoFJK:  IHMeth= 1 ICntrl=     0 DoSepK=T KAlg= 1 I1Cent= 0 FoldK=F
 FoFJK:  IHMeth= 1 ICntrl=     0 DoSepK=T KAlg= 1 I1Cent= 0 FoldK=F
 New state      1 was old state     11
 New state      2 was old state      1
 New state      4 was old state      7
 New state      6 was old state      2
 New state      7 was old state      6
 New state      9 was old state      4
 New state     10 was old state     12
 New state     11 was old state      9
 New state     12 was old state     15
 New state     13 was old state     10
 New state     14 was old state     13
 New state     15 was old state     14
 Iteration     2 Dimension    90 NMult    90
 FoFJK:  IHMeth= 1 ICntrl=     0 DoSepK=T KAlg= 1 I1Cent= 0 FoldK=F
 FoFJK:  IHMeth= 1 ICntrl=     0 DoSepK=T KAlg= 1 I1Cent= 0 FoldK=F
 FoFJK:  IHMeth= 1 ICntrl=     0 DoSepK=T KAlg= 1 I1Cent= 0 FoldK=F
 FoFJK:  IHMeth= 1 ICntrl=     0 DoSepK=T KAlg= 1 I1Cent= 0 FoldK=F
 FoFJK:  IHMeth= 1 ICntrl=     0 DoSepK=T KAlg= 1 I1Cent= 0 FoldK=F
 FoFJK:  IHMeth= 1 ICntrl=     0 DoSepK=T KAlg= 1 I1Cent= 0 FoldK=F
 New state      5 was old state      6
 New state      6 was old state      5
 New state     10 was old state     12
 New state     11 was old state     10
 New state     12 was old state     11
 Iteration     3 Dimension   120 NMult   120
 FoFJK:  IHMeth= 1 ICntrl=     0 DoSepK=T KAlg= 1 I1Cent= 0 FoldK=F
 FoFJK:  IHMeth= 1 ICntrl=     0 DoSepK=T KAlg= 1 I1Cent= 0 FoldK=F
 FoFJK:  IHMeth= 1 ICntrl=     0 DoSepK=T KAlg= 1 I1Cent= 0 FoldK=F
 FoFJK:  IHMeth= 1 ICntrl=     0 DoSepK=T KAlg= 1 I1Cent= 0 FoldK=F
 FoFJK:  IHMeth= 1 ICntrl=     0 DoSepK=T KAlg= 1 I1Cent= 0 FoldK=F
 FoFJK:  IHMeth= 1 ICntrl=     0 DoSepK=T KAlg= 1 I1Cent= 0 FoldK=F
 New state     13 was old state     14
 New state     14 was old state     13
 Iteration     4 Dimension   150 NMult   150
 FoFJK:  IHMeth= 1 ICntrl=     0 DoSepK=T KAlg= 1 I1Cent= 0 FoldK=F
 FoFJK:  IHMeth= 1 ICntrl=     0 DoSepK=T KAlg= 1 I1Cent= 0 FoldK=F
 FoFJK:  IHMeth= 1 ICntrl=     0 DoSepK=T KAlg= 1 I1Cent= 0 FoldK=F
 FoFJK:  IHMeth= 1 ICntrl=     0 DoSepK=T KAlg= 1 I1Cent= 0 FoldK=F
 FoFJK:  IHMeth= 1 ICntrl=     0 DoSepK=T KAlg= 1 I1Cent= 0 FoldK=F
 FoFJK:  IHMeth= 1 ICntrl=     0 DoSepK=T KAlg= 1 I1Cent= 0 FoldK=F
 Iteration     5 Dimension   178 NMult   178
 FoFJK:  IHMeth= 1 ICntrl=     0 DoSepK=T KAlg= 1 I1Cent= 0 FoldK=F
 FoFJK:  IHMeth= 1 ICntrl=     0 DoSepK=T KAlg= 1 I1Cent= 0 FoldK=F
 FoFJK:  IHMeth= 1 ICntrl=     0 DoSepK=T KAlg= 1 I1Cent= 0 FoldK=F
 FoFJK:  IHMeth= 1 ICntrl=     0 DoSepK=T KAlg= 1 I1Cent= 0 FoldK=F
 FoFJK:  IHMeth= 1 ICntrl=     0 DoSepK=T KAlg= 1 I1Cent= 0 FoldK=F
 FoFJK:  IHMeth= 1 ICntrl=     0 DoSepK=T KAlg= 1 I1Cent= 0 FoldK=F
 Iteration     6 Dimension   194 NMult   194
 FoFJK:  IHMeth= 1 ICntrl=     0 DoSepK=T KAlg= 1 I1Cent= 0 FoldK=F
 FoFJK:  IHMeth= 1 ICntrl=     0 DoSepK=T KAlg= 1 I1Cent= 0 FoldK=F
 FoFJK:  IHMeth= 1 ICntrl=     0 DoSepK=T KAlg= 1 I1Cent= 0 FoldK=F
 FoFJK:  IHMeth= 1 ICntrl=     0 DoSepK=T KAlg= 1 I1Cent= 0 FoldK=F
 Iteration     7 Dimension   204 NMult   204
 FoFJK:  IHMeth= 1 ICntrl=     0 DoSepK=T KAlg= 1 I1Cent= 0 FoldK=F
 FoFJK:  IHMeth= 1 ICntrl=     0 DoSepK=T KAlg= 1 I1Cent= 0 FoldK=F
 Iteration     8 Dimension   208 NMult   208
 FoFJK:  IHMeth= 1 ICntrl=     0 DoSepK=T KAlg= 1 I1Cent= 0 FoldK=F
 FoFJK:  IHMeth= 1 ICntrl=     0 DoSepK=T KAlg= 1 I1Cent= 0 FoldK=F
 Iteration     9 Dimension   210 NMult   210
 FoFJK:  IHMeth= 1 ICntrl=     0 DoSepK=T KAlg= 1 I1Cent= 0 FoldK=F
 FoFJK:  IHMeth= 1 ICntrl=     0 DoSepK=T KAlg= 1 I1Cent= 0 FoldK=F
 ***********************************************************************
 Excited states from <AA,BB:AA,BB> singles matrix:
 ***********************************************************************
 
 Ground to excited state transition electric dipole moments (Au):
       state          X           Y           Z        Dip. S.      Osc.
         1         0.0178     -0.0139      0.0032      0.0005      0.0001
         2        -1.3126      1.1354     -0.1614      3.0382      0.3226
         3         0.1723      0.3296     -0.0080      0.1384      0.0157
         4        -0.3023     -0.2784      0.0889      0.1768      0.0201
         5         1.3999      0.4018     -0.0480      2.1235      0.2704
         6        -0.0014      0.0701      0.0192      0.0053      0.0007
         7         0.1808      0.0244     -0.1253      0.0490      0.0067
         8         0.4706     -0.1381      0.0487      0.2429      0.0338
         9         0.1909      0.3553      0.2567      0.2286      0.0336
        10        -0.7829      0.2057     -0.0247      0.6558      0.0978
        11         0.4255     -0.0064     -0.0668      0.1856      0.0280
        12        -0.3511      0.0146     -0.0642      0.1276      0.0195
        13         0.8146     -0.2192     -0.0703      0.7166      0.1116
        14        -0.2869     -0.1057      0.0209      0.0939      0.0147
        15         0.8399      0.6247     -0.0744      1.1013      0.1740
 Ground to excited state transition velocity dipole moments (Au):
       state          X           Y           Z        Dip. S.      Osc.
         1        -0.0027      0.0021     -0.0005      0.0000      0.0001
         2         0.2088     -0.1806      0.0258      0.0769      0.3218
         3        -0.0292     -0.0560      0.0012      0.0040      0.0156
         4         0.0516      0.0475     -0.0151      0.0051      0.0201
         5        -0.2673     -0.0769      0.0091      0.0774      0.2703
         6         0.0002     -0.0134     -0.0037      0.0002      0.0007
         7        -0.0371     -0.0045      0.0278      0.0022      0.0070
         8        -0.0982      0.0288     -0.0107      0.0106      0.0338
         9        -0.0421     -0.0783     -0.0564      0.0111      0.0335
        10         0.1748     -0.0459      0.0056      0.0327      0.0975
        11        -0.0962      0.0015      0.0147      0.0095      0.0279
        12         0.0802     -0.0036      0.0145      0.0067      0.0194
        13        -0.1900      0.0510      0.0167      0.0390      0.1112
        14         0.0672      0.0233     -0.0057      0.0051      0.0145
        15        -0.1987     -0.1479      0.0172      0.0617      0.1734
 Ground to excited state transition magnetic dipole moments (Au):
       state          X           Y           Z
         1        -0.4287      0.3956     -0.0359
         2        -0.0824     -0.0785     -0.7780
         3         0.4778      0.5815     -0.6435
         4         0.6026      0.6317      0.5196
         5        -0.1407      0.0792      0.1317
         6         0.0837     -0.1667      0.1785
         7         0.3011      0.2643      0.0975
         8        -0.2047     -0.0455      0.3053
         9         0.2519     -0.4796      0.8511
        10        -0.0498      0.0017     -0.6999
        11        -0.0557      0.0528      0.2749
        12        -0.0093      0.0693      0.2292
        13        -0.0942      0.1901      0.3095
        14        -0.3300      0.3416      0.2541
        15        -0.0588     -0.0454     -1.2230
 <0|del|b> * <b|rxdel|0> + <0|del|b> * <b|delr+rdel|0>
 Rotatory Strengths (R) in cgs (10**-40 erg-esu-cm/Gauss)
       state          XX          YY          ZZ    R(velocity)
         1         2.1064      2.9008      4.4367      3.1480
 Total R(velocity) tensor for State=          1
                 1             2             3 
      1   0.210644D+01  0.261581D+01 -0.274061D+00
      2   0.224429D+01  0.290079D+01  0.201986D+00
      3  -0.484594D+00  0.405796D+00  0.443670D+01
 R(velocity) tensor in inp. orien. for State=          1
                 1             2             3 
      1   0.210644D+01  0.261581D+01 -0.274061D+00
      2   0.224429D+01  0.290079D+01  0.201986D+00
      3  -0.484594D+00  0.405796D+00  0.443670D+01
         2       -19.4939    -50.9385    -32.0015    -34.1446
 Total R(velocity) tensor for State=          2
                 1             2             3 
      1  -0.194939D+02 -0.104730D+02  0.845227D+02
      2  -0.471227D+02 -0.509385D+02  0.247162D+02
      3  -0.898284D+01 -0.149478D+02 -0.320015D+02
 R(velocity) tensor in inp. orien. for State=          2
                 1             2             3 
      1  -0.194939D+02 -0.104730D+02  0.845227D+02
      2  -0.471227D+02 -0.509385D+02  0.247162D+02
      3  -0.898284D+01 -0.149478D+02 -0.320015D+02
         3       -81.5020    -35.1392    -79.7000    -65.4471
 Total R(velocity) tensor for State=          3
                 1             2             3 
      1  -0.815020D+02  0.406128D+02 -0.875745D+02
      2   0.642899D+02 -0.351392D+02 -0.807801D+02
      3  -0.485278D+00 -0.139782D+01 -0.797000D+02
 R(velocity) tensor in inp. orien. for State=          3
                 1             2             3 
      1  -0.815020D+02  0.406128D+02 -0.875745D+02
      2   0.642899D+02 -0.351392D+02 -0.807801D+02
      3  -0.485278D+00 -0.139782D+01 -0.797000D+02
         4        52.3384     49.7434    118.2082     73.4300
 Total R(velocity) tensor for State=          4
                 1             2             3 
      1   0.523384D+02 -0.844107D+02 -0.868389D+02
      2  -0.667560D+02  0.497434D+02 -0.713445D+02
      3   0.215529D+02  0.142105D+02  0.118208D+03
 R(velocity) tensor in inp. orien. for State=          4
                 1             2             3 
      1   0.523384D+02 -0.844107D+02 -0.868389D+02
      2  -0.667560D+02  0.497434D+02 -0.713445D+02
      3   0.215529D+02  0.142105D+02  0.118208D+03
         5       -15.1622     28.7408    107.6087     40.3958
 Total R(velocity) tensor for State=          5
                 1             2             3 
      1  -0.151622D+02  0.663153D+02  0.114128D+03
      2  -0.153881D+02  0.287408D+02 -0.208196D+03
      3   0.140221D+02 -0.359610D+02  0.107609D+03
 R(velocity) tensor in inp. orien. for State=          5
                 1             2             3 
      1  -0.151622D+02  0.663153D+02  0.114128D+03
      2  -0.153881D+02  0.287408D+02 -0.208196D+03
      3   0.140221D+02 -0.359610D+02  0.107609D+03
         6         4.0771     -0.5029      2.2392      1.9378
 Total R(velocity) tensor for State=          6
                 1             2             3 
      1   0.407709D+01  0.298423D-01  0.106999D+00
      2   0.307501D+01 -0.502931D+00  0.200615D+01
      3   0.521894D+00 -0.603500D+00  0.223919D+01
 R(velocity) tensor in inp. orien. for State=          6
                 1             2             3 
      1   0.407709D+01  0.298423D-01  0.106999D+00
      2   0.307501D+01 -0.502931D+00  0.200615D+01
      3   0.521894D+00 -0.603500D+00  0.223919D+01
         7        10.3840    -40.3156     -3.1066    -11.0127
 Total R(velocity) tensor for State=          7
                 1             2             3 
      1   0.103840D+02  0.213908D+02  0.173352D+02
      2   0.539242D+01 -0.403156D+02  0.618859D+00
      3  -0.232169D+01 -0.640368D-01 -0.310661D+01
 R(velocity) tensor in inp. orien. for State=          7
                 1             2             3 
      1   0.103840D+02  0.213908D+02  0.173352D+02
      2   0.539242D+01 -0.403156D+02  0.618859D+00
      3  -0.232169D+01 -0.640368D-01 -0.310661D+01
         8       -17.7898     49.8732     20.5341     17.5392
 Total R(velocity) tensor for State=          8
                 1             2             3 
      1  -0.177898D+02  0.858647D+01  0.186224D+03
      2   0.107214D+02  0.498732D+02  0.358406D+02
      3  -0.597561D+01 -0.127369D+02  0.205341D+02
 R(velocity) tensor in inp. orien. for State=          8
                 1             2             3 
      1  -0.177898D+02  0.858647D+01  0.186224D+03
      2   0.107214D+02  0.498732D+02  0.358406D+02
      3  -0.597561D+01 -0.127369D+02  0.205341D+02
         9       -12.8561    -68.6067     14.0227    -22.4800
 Total R(velocity) tensor for State=          9
                 1             2             3 
      1  -0.128561D+02 -0.479245D+02  0.761463D+02
      2   0.520323D+02 -0.686067D+02  0.564129D+02
      3   0.686242D+01 -0.137889D+02  0.140227D+02
 R(velocity) tensor in inp. orien. for State=          9
                 1             2             3 
      1  -0.128561D+02 -0.479245D+02  0.761463D+02
      2   0.520323D+02 -0.686067D+02  0.564129D+02
      3   0.686242D+01 -0.137889D+02  0.140227D+02
        10        -7.5855    -19.5396    -13.0693    -13.3981
 Total R(velocity) tensor for State=         10
                 1             2             3 
      1  -0.758555D+01 -0.874181D+01  0.164632D+03
      2  -0.580748D+01 -0.195396D+02  0.209459D+02
      3  -0.156720D+01 -0.756147D+01 -0.130693D+02
 R(velocity) tensor in inp. orien. for State=         10
                 1             2             3 
      1  -0.758555D+01 -0.874181D+01  0.164632D+03
      2  -0.580748D+01 -0.195396D+02  0.209459D+02
      3  -0.156720D+01 -0.756147D+01 -0.130693D+02
        11         7.9310      7.3244     14.4107      9.8887
 Total R(velocity) tensor for State=         11
                 1             2             3 
      1   0.793096D+01  0.872210D+01  0.509003D+02
      2  -0.297052D+01  0.732437D+01 -0.201613D+02
      3   0.222014D+01  0.877313D+00  0.144107D+02
 R(velocity) tensor in inp. orien. for State=         11
                 1             2             3 
      1   0.793096D+01  0.872210D+01  0.509003D+02
      2  -0.297052D+01  0.732437D+01 -0.201613D+02
      3   0.222014D+01  0.877313D+00  0.144107D+02
        12        -1.6250      8.3944      0.4533      2.4076
 Total R(velocity) tensor for State=         12
                 1             2             3 
      1  -0.162495D+01 -0.190121D+02  0.430454D+01
      2  -0.601786D+01  0.839436D+01  0.352498D+02
      3  -0.156561D+00 -0.167458D+01  0.453251D+00
 R(velocity) tensor in inp. orien. for State=         12
                 1             2             3 
      1  -0.162495D+01 -0.190121D+02  0.430454D+01
      2  -0.601786D+01  0.839436D+01  0.352498D+02
      3  -0.156561D+00 -0.167458D+01  0.453251D+00
        13        59.1482     -5.8272     45.8962     33.0724
 Total R(velocity) tensor for State=         13
                 1             2             3 
      1   0.591482D+02  0.121506D+03  0.300708D+03
      2   0.669678D+00 -0.582715D+01  0.253558D+02
      3   0.127847D+01 -0.103008D+02  0.458962D+02
 R(velocity) tensor in inp. orien. for State=         13
                 1             2             3 
      1   0.591482D+02  0.121506D+03  0.300708D+03
      2   0.669678D+00 -0.582715D+01  0.253558D+02
      3   0.127847D+01 -0.103008D+02  0.458962D+02
        14        16.3635    -55.9901     -7.5899    -15.7388
 Total R(velocity) tensor for State=         14
                 1             2             3 
      1   0.163635D+02 -0.569918D+02 -0.405513D+02
      2   0.204904D+02 -0.559901D+02  0.124603D+02
      3  -0.207302D+01  0.412571D+01 -0.758993D+01
 R(velocity) tensor in inp. orien. for State=         14
                 1             2             3 
      1   0.163635D+02 -0.569918D+02 -0.405513D+02
      2   0.204904D+02 -0.559901D+02  0.124603D+02
      3  -0.207302D+01  0.412571D+01 -0.758993D+01
        15       -46.1213     54.7021    -16.4188     -2.6127
 Total R(velocity) tensor for State=         15
                 1             2             3 
      1  -0.461213D+02  0.372591D+02 -0.212680D+03
      2  -0.224781D+02  0.547021D+02  0.210541D+03
      3   0.316751D+01 -0.616733D+01 -0.164188D+02
 R(velocity) tensor in inp. orien. for State=         15
                 1             2             3 
      1  -0.461213D+02  0.372591D+02 -0.212680D+03
      2  -0.224781D+02  0.547021D+02  0.210541D+03
      3   0.316751D+01 -0.616733D+01 -0.164188D+02
 1/2[<0|r|b>*<b|rxdel|0> + (<0|rxdel|b>*<b|r|0>)*]
 Rotatory Strengths (R) in cgs (10**-40 erg-esu-cm/Gauss)
       state          XX          YY          ZZ     R(length)     R(au)
         1         5.4088      3.8864      0.0825      3.1259      0.0066
         2       -76.5262     63.0661    -88.8039    -34.0880     -0.0723
         3       -58.2272   -135.5544     -3.6428    -65.8081     -0.1396
         4       128.8236    124.3639    -32.6475     73.5133      0.1559
         5       139.3331    -22.5130      4.4685     40.4296      0.0858
         6         0.0807      8.2656     -2.4216      1.9749      0.0042
         7       -38.4994     -4.5552      8.6402    -11.4715     -0.0243
         8        68.1311     -4.4401    -10.5128     17.7261      0.0376
         9       -34.0036    120.5094   -154.5048    -22.6663     -0.0481
        10       -27.5748     -0.2419    -12.2505    -13.3557     -0.0283
        11        16.7658      0.2373     12.9859      9.9963      0.0212
        12        -2.3184     -0.7133     10.4017      2.4566      0.0052
        13        54.2743     29.4582     15.3831     33.0385      0.0701
        14       -66.9535     25.5220     -3.7543    -15.0619     -0.0319
        15        34.9403     20.0614    -64.3126     -3.1036     -0.0066
  1/2[<0|del|b>*<b|r|0> + (<0|r|b>*<b|del|0>)*] (Au)
       state          X           Y           Z        Dip. S.   Osc.(frdel)
         1         0.0000      0.0000      0.0000      0.0001      0.0001
         2        -0.2741     -0.2051     -0.0042      0.4833      0.3222
         3        -0.0050     -0.0185      0.0000      0.0235      0.0157
         4        -0.0156     -0.0132     -0.0013      0.0302      0.0201
         5        -0.3742     -0.0309     -0.0004      0.4055      0.2703
         6         0.0000     -0.0009     -0.0001      0.0010      0.0007
         7        -0.0067     -0.0001     -0.0035      0.0103      0.0069
         8        -0.0462     -0.0040     -0.0005      0.0507      0.0338
         9        -0.0080     -0.0278     -0.0145      0.0503      0.0335
        10        -0.1369     -0.0094     -0.0001      0.1465      0.0976
        11        -0.0409      0.0000     -0.0010      0.0419      0.0279
        12        -0.0282     -0.0001     -0.0009      0.0292      0.0194
        13        -0.1548     -0.0112     -0.0012      0.1671      0.1114
        14        -0.0193     -0.0025     -0.0001      0.0219      0.0146
        15        -0.1669     -0.0924     -0.0013      0.2606      0.1737
 Ground to excited state transition densities written to RWF  633

 Excitation energies and oscillator strengths:
 
 Excited State   1:      Singlet-A      4.0936 eV  302.88 nm  f=0.0001  <S**2>=0.000
      52 -> 57         0.66837
      52 -> 66         0.14697
 This state for optimization and/or second-order correction.
 Copying the excited state density for this state as the 1-particle RhoCI density.
 
 Excited State   2:      Singlet-A      4.3342 eV  286.06 nm  f=0.3226  <S**2>=0.000
      56 -> 57         0.68234
 
 Excited State   3:      Singlet-A      4.6328 eV  267.62 nm  f=0.0157  <S**2>=0.000
      50 -> 57         0.47777
      55 -> 57        -0.27482
      56 -> 58        -0.37293
      56 -> 61        -0.13025
 
 Excited State   4:      Singlet-A      4.6516 eV  266.54 nm  f=0.0201  <S**2>=0.000
      50 -> 57         0.46013
      50 -> 66         0.10002
      53 -> 57         0.18553
      55 -> 57         0.19236
      56 -> 58         0.39665
      56 -> 61         0.13826
 
 Excited State   5:      Singlet-A      5.1981 eV  238.52 nm  f=0.2704  <S**2>=0.000
      53 -> 57         0.20135
      55 -> 57         0.50640
      56 -> 58        -0.40887
 
 Excited State   6:      Singlet-A      5.3085 eV  233.56 nm  f=0.0007  <S**2>=0.000
      53 -> 59        -0.15250
      54 -> 58        -0.36241
      54 -> 61         0.19686
      55 -> 59         0.32303
      56 -> 59         0.40837
 
 Excited State   7:      Singlet-A      5.6170 eV  220.73 nm  f=0.0067  <S**2>=0.000
      56 -> 60         0.62560
      56 -> 62         0.22069
 
 Excited State   8:      Singlet-A      5.6783 eV  218.35 nm  f=0.0338  <S**2>=0.000
      54 -> 59        -0.13422
      55 -> 57        -0.21340
      55 -> 58        -0.37014
      56 -> 59         0.14847
      56 -> 61         0.47019
 
 Excited State   9:      Singlet-A      6.0021 eV  206.57 nm  f=0.0336  <S**2>=0.000
      53 -> 59         0.15226
      54 -> 58         0.29901
      54 -> 61        -0.13241
      55 -> 59        -0.15686
      56 -> 59         0.51967
      56 -> 61        -0.17715
 
 Excited State  10:      Singlet-A      6.0869 eV  203.69 nm  f=0.0978  <S**2>=0.000
      53 -> 58        -0.13619
      54 -> 57         0.12774
      54 -> 59         0.18606
      55 -> 58         0.48387
      56 -> 61         0.36338
 
 Excited State  11:      Singlet-A      6.1528 eV  201.51 nm  f=0.0280  <S**2>=0.000
      53 -> 57         0.29510
      54 -> 57         0.57067
      54 -> 59         0.10844
      55 -> 57        -0.13181
      55 -> 58        -0.11420
      55 -> 61        -0.10358
 
 Excited State  12:      Singlet-A      6.2283 eV  199.07 nm  f=0.0195  <S**2>=0.000
      51 -> 57        -0.11013
      53 -> 57         0.50914
      54 -> 57        -0.33040
      55 -> 57        -0.20526
 
 Excited State  13:      Singlet-A      6.3588 eV  194.98 nm  f=0.1116  <S**2>=0.000
      53 -> 58        -0.22037
      54 -> 57        -0.14880
      54 -> 59         0.34967
      55 -> 58        -0.14457
      55 -> 61        -0.28717
      56 -> 63         0.10029
      56 -> 64        -0.11208
      56 -> 65         0.14526
      56 -> 66        -0.31426
 
 Excited State  14:      Singlet-A      6.3796 eV  194.35 nm  f=0.0147  <S**2>=0.000
      51 -> 57        -0.10383
      55 -> 60        -0.26340
      56 -> 60        -0.17587
      56 -> 62         0.50324
      56 -> 64         0.12878
      56 -> 65         0.22632
 
 Excited State  15:      Singlet-A      6.4490 eV  192.25 nm  f=0.1740  <S**2>=0.000
      51 -> 57         0.64788
 SavETr:  write IOETrn=   770 NScale= 10 NData=  16 NLR=1 LETran=     280.

 **********************************************************************

            Population analysis using the SCF density.

 **********************************************************************

 Orbital symmetries:
       Occupied  (A) (A) (A) (A) (A) (A) (A) (A) (A) (A) (A) (A)
                 (A) (A) (A) (A) (A) (A) (A) (A) (A) (A) (A) (A)
                 (A) (A) (A) (A) (A) (A) (A) (A) (A) (A) (A) (A)
                 (A) (A) (A) (A) (A) (A) (A) (A) (A) (A) (A) (A)
                 (A) (A) (A) (A) (A) (A) (A) (A)
       Virtual   (A) (A) (A) (A) (A) (A) (A) (A) (A) (A) (A) (A)
                 (A) (A) (A) (A) (A) (A) (A) (A) (A) (A) (A) (A)
                 (A) (A) (A) (A) (A) (A) (A) (A) (A) (A) (A) (A)
                 (A) (A) (A) (A) (A) (A) (A) (A) (A) (A) (A) (A)
                 (A) (A) (A) (A) (A) (A) (A) (A) (A) (A) (A) (A)
                 (A) (A) (A) (A) (A) (A) (A) (A) (A) (A) (A) (A)
                 (A) (A) (A) (A) (A) (A) (A) (A) (A) (A) (A) (A)
                 (A) (A) (A) (A) (A) (A) (A) (A) (A) (A) (A) (A)
                 (A) (A) (A) (A) (A) (A) (A) (A) (A) (A) (A) (A)
                 (A) (A) (A) (A) (A) (A) (A) (A) (A) (A) (A) (A)
                 (A) (A) (A) (A) (A) (A) (A) (A) (A) (A) (A) (A)
                 (A) (A) (A) (A) (A) (A) (A) (A) (A) (A) (A) (A)
                 (A) (A) (A) (A) (A) (A) (A) (A) (A) (A) (A) (A)
                 (A) (A) (A) (A) (A) (A) (A) (A) (A) (A) (A) (A)
                 (A) (A) (A) (A) (A) (A) (A) (A) (A) (A) (A) (A)
                 (A) (A) (A) (A) (A) (A) (A) (A) (A) (A) (A) (A)
                 (A) (A) (A) (A) (A) (A) (A) (A) (A) (A) (A) (A)
                 (A) (A) (A) (A) (A) (A) (A) (A) (A) (A) (A) (A)
                 (A) (A) (A) (A) (A) (A) (A) (A) (A) (A) (A) (A)
                 (A) (A) (A) (A) (A) (A) (A) (A) (A) (A) (A) (A)
                 (A) (A) (A) (A) (A) (A) (A) (A) (A) (A) (A) (A)
                 (A) (A) (A) (A) (A) (A) (A) (A) (A) (A) (A) (A)
                 (A) (A) (A) (A) (A) (A) (A) (A) (A) (A) (A) (A)
                 (A) (A) (A) (A) (A) (A) (A) (A) (A) (A) (A) (A)
                 (A) (A) (A) (A) (A) (A) (A) (A) (A) (A) (A) (A)
                 (A) (A) (A) (A) (A) (A) (A) (A) (A) (A) (A) (A)
                 (A) (A) (A) (A) (A) (A) (A) (A) (A) (A) (A) (A)
                 (A) (A) (A) (A) (A) (A) (A) (A) (A) (A) (A) (A)
                 (A) (A) (A) (A) (A) (A) (A) (A) (A) (A) (A) (A)
                 (A) (A) (A) (A) (A) (A) (A) (A) (A) (A) (A) (A)
                 (A) (A) (A) (A) (A) (A) (A) (A) (A) (A) (A) (A)
                 (A) (A) (A) (A) (A) (A) (A) (A) (A) (A) (A) (A)
                 (A) (A) (A) (A) (A) (A) (A) (A) (A) (A) (A) (A)
                 (A) (A) (A) (A) (A) (A) (A) (A) (A) (A) (A) (A)
                 (A) (A) (A) (A) (A) (A) (A) (A) (A) (A) (A) (A)
                 (A) (A) (A) (A) (A) (A) (A) (A) (A) (A) (A) (A)
                 (A) (A) (A) (A) (A) (A) (A) (A) (A) (A) (A) (A)
                 (A) (A) (A) (A) (A) (A) (A) (A) (A) (A) (A) (A)
                 (A) (A) (A) (A) (A) (A) (A) (A) (A) (A) (A) (A)
                 (A) (A) (A) (A) (A) (A) (A) (A) (A) (A) (A) (A)
                 (A) (A) (A) (A) (A) (A) (A) (A) (A) (A) (A) (A)
                 (A) (A) (A) (A) (A) (A) (A) (A) (A) (A) (A) (A)
                 (A) (A) (A) (A) (A) (A) (A) (A) (A) (A) (A) (A)
                 (A) (A) (A) (A) (A) (A) (A) (A) (A) (A) (A) (A)
                 (A) (A) (A) (A) (A) (A) (A) (A) (A) (A) (A) (A)
                 (A) (A) (A) (A) (A) (A) (A) (A) (A) (A) (A) (A)
                 (A) (A) (A) (A) (A) (A) (A) (A) (A) (A) (A) (A)
                 (A) (A) (A) (A) (A) (A) (A) (A) (A) (A) (A) (A)
                 (A) (A) (A) (A) (A) (A) (A) (A) (A) (A) (A) (A)
                 (A) (A) (A) (A) (A) (A) (A) (A) (A) (A) (A) (A)
                 (A) (A) (A) (A) (A) (A) (A) (A) (A) (A) (A) (A)
                 (A) (A) (A) (A) (A) (A) (A) (A) (A) (A) (A) (A)
                 (A)
 The electronic state is 1-A.
 Alpha  occ. eigenvalues --  -19.22357 -19.22356 -14.62556 -14.41988 -10.32153
 Alpha  occ. eigenvalues --  -10.29775 -10.27550 -10.27522 -10.27415 -10.27349
 Alpha  occ. eigenvalues --  -10.26508 -10.26323 -10.26262 -10.26245 -10.26186
 Alpha  occ. eigenvalues --  -10.26117  -1.31597  -1.13567  -1.03913  -0.97175
 Alpha  occ. eigenvalues --   -0.96031  -0.89012  -0.87060  -0.84635  -0.82791
 Alpha  occ. eigenvalues --   -0.77095  -0.73134  -0.70519  -0.69128  -0.66260
 Alpha  occ. eigenvalues --   -0.63821  -0.62099  -0.61278  -0.60874  -0.60049
 Alpha  occ. eigenvalues --   -0.57968  -0.54829  -0.54340  -0.52824  -0.52320
 Alpha  occ. eigenvalues --   -0.50921  -0.50634  -0.49519  -0.48136  -0.45758
 Alpha  occ. eigenvalues --   -0.44997  -0.42421  -0.41965  -0.40961  -0.37752
 Alpha  occ. eigenvalues --   -0.37465  -0.35981  -0.34984  -0.32905  -0.31774
 Alpha  occ. eigenvalues --   -0.28461
 Alpha virt. eigenvalues --   -0.03799  -0.00335   0.01461   0.01829   0.02811
 Alpha virt. eigenvalues --    0.03176   0.04228   0.04992   0.05141   0.05978
 Alpha virt. eigenvalues --    0.06878   0.07196   0.07530   0.07661   0.07990
 Alpha virt. eigenvalues --    0.10277   0.10817   0.10918   0.11031   0.11481
 Alpha virt. eigenvalues --    0.13369   0.13959   0.14191   0.14614   0.14801
 Alpha virt. eigenvalues --    0.15414   0.16067   0.16470   0.16955   0.17417
 Alpha virt. eigenvalues --    0.17537   0.18044   0.18643   0.19022   0.19641
 Alpha virt. eigenvalues --    0.20151   0.20544   0.21420   0.21797   0.22187
 Alpha virt. eigenvalues --    0.22448   0.22668   0.22897   0.22947   0.23491
 Alpha virt. eigenvalues --    0.24069   0.24418   0.24800   0.25091   0.25242
 Alpha virt. eigenvalues --    0.25726   0.26200   0.26638   0.26883   0.27352
 Alpha virt. eigenvalues --    0.27551   0.27918   0.28131   0.28652   0.28963
 Alpha virt. eigenvalues --    0.29216   0.29634   0.30180   0.30393   0.30498
 Alpha virt. eigenvalues --    0.31257   0.31989   0.32115   0.32654   0.32908
 Alpha virt. eigenvalues --    0.33659   0.33769   0.34310   0.34643   0.35170
 Alpha virt. eigenvalues --    0.35508   0.35877   0.36108   0.36462   0.36657
 Alpha virt. eigenvalues --    0.37255   0.37702   0.38091   0.38207   0.38542
 Alpha virt. eigenvalues --    0.38986   0.39123   0.39341   0.39673   0.40188
 Alpha virt. eigenvalues --    0.40714   0.41011   0.41226   0.41557   0.42147
 Alpha virt. eigenvalues --    0.42449   0.43002   0.43028   0.43483   0.43959
 Alpha virt. eigenvalues --    0.44956   0.45082   0.45427   0.45756   0.45990
 Alpha virt. eigenvalues --    0.46409   0.46780   0.47015   0.47781   0.48137
 Alpha virt. eigenvalues --    0.48577   0.49045   0.49428   0.49768   0.50218
 Alpha virt. eigenvalues --    0.50530   0.50793   0.51587   0.51908   0.52182
 Alpha virt. eigenvalues --    0.52361   0.53220   0.53639   0.54090   0.55027
 Alpha virt. eigenvalues --    0.55174   0.56155   0.56303   0.56753   0.56797
 Alpha virt. eigenvalues --    0.57053   0.57859   0.58033   0.58815   0.58988
 Alpha virt. eigenvalues --    0.59688   0.60378   0.61000   0.61010   0.61680
 Alpha virt. eigenvalues --    0.62017   0.62430   0.62800   0.63148   0.63468
 Alpha virt. eigenvalues --    0.63672   0.64374   0.64657   0.65154   0.65866
 Alpha virt. eigenvalues --    0.66020   0.66509   0.67121   0.67590   0.67973
 Alpha virt. eigenvalues --    0.68201   0.68444   0.68803   0.68976   0.69859
 Alpha virt. eigenvalues --    0.70039   0.70523   0.70821   0.71208   0.71862
 Alpha virt. eigenvalues --    0.71992   0.72227   0.72961   0.73281   0.73793
 Alpha virt. eigenvalues --    0.74266   0.74475   0.74731   0.75487   0.75492
 Alpha virt. eigenvalues --    0.75890   0.76396   0.76804   0.76947   0.77837
 Alpha virt. eigenvalues --    0.78354   0.78550   0.78690   0.79219   0.79541
 Alpha virt. eigenvalues --    0.80172   0.80345   0.80751   0.80864   0.81137
 Alpha virt. eigenvalues --    0.81193   0.81828   0.82554   0.83290   0.84099
 Alpha virt. eigenvalues --    0.84656   0.85236   0.86250   0.86828   0.86966
 Alpha virt. eigenvalues --    0.87607   0.88092   0.88615   0.88943   0.89391
 Alpha virt. eigenvalues --    0.90453   0.91693   0.92783   0.92944   0.93616
 Alpha virt. eigenvalues --    0.94491   0.95255   0.95971   0.96397   0.97567
 Alpha virt. eigenvalues --    0.97900   0.98584   0.99961   1.00562   1.01649
 Alpha virt. eigenvalues --    1.02039   1.02331   1.02670   1.03563   1.04099
 Alpha virt. eigenvalues --    1.04309   1.06032   1.06278   1.06760   1.07821
 Alpha virt. eigenvalues --    1.08374   1.09465   1.09737   1.10568   1.11742
 Alpha virt. eigenvalues --    1.12480   1.13602   1.14073   1.15332   1.15892
 Alpha virt. eigenvalues --    1.16577   1.18322   1.19626   1.21274   1.21906
 Alpha virt. eigenvalues --    1.22499   1.23371   1.24711   1.25288   1.27137
 Alpha virt. eigenvalues --    1.28065   1.29696   1.30460   1.30943   1.33263
 Alpha virt. eigenvalues --    1.33722   1.34587   1.36469   1.37218   1.38116
 Alpha virt. eigenvalues --    1.38578   1.39651   1.42447   1.43146   1.43327
 Alpha virt. eigenvalues --    1.44133   1.46770   1.47191   1.47695   1.49177
 Alpha virt. eigenvalues --    1.50483   1.51124   1.51882   1.52804   1.53698
 Alpha virt. eigenvalues --    1.54427   1.54970   1.56098   1.57322   1.58670
 Alpha virt. eigenvalues --    1.58719   1.59907   1.61705   1.62454   1.63994
 Alpha virt. eigenvalues --    1.65136   1.66424   1.67197   1.69649   1.71814
 Alpha virt. eigenvalues --    1.72509   1.73235   1.74152   1.74785   1.76515
 Alpha virt. eigenvalues --    1.77977   1.78608   1.78756   1.80517   1.81869
 Alpha virt. eigenvalues --    1.81997   1.83229   1.84188   1.85064   1.86145
 Alpha virt. eigenvalues --    1.86819   1.88381   1.88866   1.89714   1.90383
 Alpha virt. eigenvalues --    1.91351   1.91581   1.92636   1.93265   1.94080
 Alpha virt. eigenvalues --    1.96115   1.96585   1.97796   1.98576   1.99016
 Alpha virt. eigenvalues --    1.99213   2.00628   2.00788   2.02033   2.02718
 Alpha virt. eigenvalues --    2.03811   2.04927   2.05414   2.06331   2.07481
 Alpha virt. eigenvalues --    2.08626   2.10143   2.11513   2.12247   2.12996
 Alpha virt. eigenvalues --    2.13853   2.14168   2.16985   2.19892   2.21932
 Alpha virt. eigenvalues --    2.22634   2.23042   2.25360   2.28006   2.29173
 Alpha virt. eigenvalues --    2.30530   2.31275   2.32533   2.35000   2.35288
 Alpha virt. eigenvalues --    2.36176   2.36817   2.38021   2.39094   2.39682
 Alpha virt. eigenvalues --    2.40686   2.42321   2.42713   2.44797   2.45229
 Alpha virt. eigenvalues --    2.46778   2.48374   2.50255   2.50676   2.51885
 Alpha virt. eigenvalues --    2.55804   2.57011   2.58440   2.59906   2.62778
 Alpha virt. eigenvalues --    2.63652   2.63979   2.66311   2.66800   2.67590
 Alpha virt. eigenvalues --    2.68729   2.69469   2.70626   2.73045   2.73503
 Alpha virt. eigenvalues --    2.74128   2.74922   2.75882   2.77606   2.78608
 Alpha virt. eigenvalues --    2.79121   2.80292   2.81392   2.84512   2.85501
 Alpha virt. eigenvalues --    2.86895   2.87675   2.88541   2.89208   2.90283
 Alpha virt. eigenvalues --    2.90361   2.91297   2.92335   2.93168   2.93403
 Alpha virt. eigenvalues --    2.94020   2.94826   2.95859   2.96739   2.97479
 Alpha virt. eigenvalues --    2.98384   2.99437   3.00351   3.01999   3.02404
 Alpha virt. eigenvalues --    3.03170   3.04391   3.04580   3.05571   3.06233
 Alpha virt. eigenvalues --    3.06971   3.10881   3.11030   3.13282   3.14316
 Alpha virt. eigenvalues --    3.15777   3.16129   3.17041   3.18513   3.18811
 Alpha virt. eigenvalues --    3.19571   3.20486   3.21674   3.23075   3.23989
 Alpha virt. eigenvalues --    3.24771   3.25863   3.28632   3.29298   3.30714
 Alpha virt. eigenvalues --    3.31523   3.31909   3.33776   3.35754   3.36638
 Alpha virt. eigenvalues --    3.37990   3.38196   3.38935   3.39196   3.39610
 Alpha virt. eigenvalues --    3.40914   3.41361   3.42470   3.43231   3.44236
 Alpha virt. eigenvalues --    3.45155   3.45587   3.45931   3.46889   3.47633
 Alpha virt. eigenvalues --    3.48028   3.49099   3.50352   3.51202   3.51417
 Alpha virt. eigenvalues --    3.52276   3.52793   3.53319   3.54029   3.55359
 Alpha virt. eigenvalues --    3.56465   3.56595   3.57490   3.58220   3.59604
 Alpha virt. eigenvalues --    3.60249   3.61064   3.61200   3.62204   3.63413
 Alpha virt. eigenvalues --    3.64868   3.65793   3.66573   3.67291   3.67920
 Alpha virt. eigenvalues --    3.70282   3.71133   3.71879   3.74350   3.75915
 Alpha virt. eigenvalues --    3.76472   3.76880   3.81141   3.86352   3.87102
 Alpha virt. eigenvalues --    3.88089   3.88573   3.91203   3.92449   3.94716
 Alpha virt. eigenvalues --    3.96119   3.98194   3.98245   4.02150   4.06014
 Alpha virt. eigenvalues --    4.07103   4.08780   4.10499   4.12799   4.15300
 Alpha virt. eigenvalues --    4.15759   4.19326   4.20471   4.21379   4.23001
 Alpha virt. eigenvalues --    4.23053   4.24362   4.24776   4.26725   4.28528
 Alpha virt. eigenvalues --    4.28732   4.30408   4.31594   4.32485   4.34007
 Alpha virt. eigenvalues --    4.34706   4.35477   4.36827   4.37175   4.38942
 Alpha virt. eigenvalues --    4.41172   4.41499   4.42290   4.44741   4.45729
 Alpha virt. eigenvalues --    4.46210   4.51262   4.55539   4.56251   4.57537
 Alpha virt. eigenvalues --    4.62323   4.67195   4.68400   4.71989   4.74676
 Alpha virt. eigenvalues --    4.76135   4.79934   4.80043   4.81523   4.82348
 Alpha virt. eigenvalues --    4.83789   4.85470   4.87614   4.90190   4.90588
 Alpha virt. eigenvalues --    4.93327   4.94177   4.95094   4.97627   4.99246
 Alpha virt. eigenvalues --    5.00135   5.01562   5.03494   5.06214   5.11228
 Alpha virt. eigenvalues --    5.13864   5.17884   5.18812   5.21356   5.21759
 Alpha virt. eigenvalues --    5.25002   5.27511   5.27596   5.31269   5.33463
 Alpha virt. eigenvalues --    5.34561   5.34983   5.39957   5.42098   5.42718
 Alpha virt. eigenvalues --    5.46713   5.48477   5.51576   5.52407   5.57582
 Alpha virt. eigenvalues --    5.58522   5.60023   5.64361   5.69473   5.73131
 Alpha virt. eigenvalues --    5.75678   5.78459   5.81837   5.82047   5.84238
 Alpha virt. eigenvalues --    5.99490   6.12297   6.14177   6.19230   6.46043
 Alpha virt. eigenvalues --    6.46967   6.54395   6.60808   6.62709   6.65152
 Alpha virt. eigenvalues --    6.95707   6.96949   7.00211   7.14574   7.33968
 Alpha virt. eigenvalues --    7.47720   7.58430   7.81108   7.83892  22.66450
 Alpha virt. eigenvalues --   22.76442  22.84847  22.85390  22.99138  23.00384
 Alpha virt. eigenvalues --   23.05233  23.09390  23.18772  23.25318  23.40945
 Alpha virt. eigenvalues --   23.65002  32.54283  32.88835  44.49489  44.69557
          Condensed to atoms (all electrons):
              1          2          3          4          5          6
     1  C    5.914457   0.434662  -0.256940   0.038626   0.021703   0.274944
     2  C    0.434662   5.898518   0.300198  -0.205689  -0.005584  -0.232029
     3  C   -0.256940   0.300198   6.251416   0.206347  -0.209135  -0.001614
     4  C    0.038626  -0.205689   0.206347   6.819759  -0.253886  -0.307603
     5  C    0.021703  -0.005584  -0.209135  -0.253886   6.100555   0.265618
     6  C    0.274944  -0.232029  -0.001614  -0.307603   0.265618   5.938433
     7  H    0.231616  -0.114448   0.002628   0.005042  -0.004450  -0.032473
     8  H    0.001064  -0.109875   0.327760  -0.070169   0.010552   0.002132
     9  H   -0.004382   0.017065  -0.047303   0.460981  -0.228443   0.001285
    10  N   -0.099951   0.447363  -0.243488  -0.026481   0.008659   0.019615
    11  O    0.001355  -0.097937   0.044758   0.008857  -0.000627  -0.010566
    12  O   -0.017593  -0.044735   0.025333   0.000373  -0.006641   0.006647
    13  N   -0.003233   0.012996  -0.022615  -0.113455   0.147523  -0.018516
    14  H    0.001989  -0.000508   0.003557   0.048459  -0.089625  -0.005276
    15  H   -0.009829  -0.001372  -0.002637  -0.027590   0.028254  -0.048201
    16  C    0.128306  -0.063979  -0.011074  -0.019490   0.182048   0.143217
    17  C    0.021596  -0.015297  -0.001580  -0.004411  -0.052209  -0.019236
    18  C   -0.141311   0.001553  -0.006456  -0.028026  -0.244132  -0.157892
    19  C    0.013163  -0.002164  -0.000125  -0.000509  -0.003624  -0.055171
    20  H   -0.020585   0.001904   0.000180   0.000532  -0.003519  -0.011286
    21  C   -0.005992  -0.001050   0.000622  -0.000145   0.024894  -0.017024
    22  H   -0.016351   0.000673  -0.000707  -0.002047  -0.037324   0.004441
    23  C   -0.004025   0.000187   0.000013   0.000706   0.002445   0.007514
    24  H    0.002913  -0.000127   0.000002   0.000015   0.000334  -0.002887
    25  H    0.001091  -0.000037   0.000015   0.000019   0.000085  -0.000043
    26  H   -0.000003   0.000010   0.000000  -0.000001  -0.000303   0.000248
              7          8          9         10         11         12
     1  C    0.231616   0.001064  -0.004382  -0.099951   0.001355  -0.017593
     2  C   -0.114448  -0.109875   0.017065   0.447363  -0.097937  -0.044735
     3  C    0.002628   0.327760  -0.047303  -0.243488   0.044758   0.025333
     4  C    0.005042  -0.070169   0.460981  -0.026481   0.008857   0.000373
     5  C   -0.004450   0.010552  -0.228443   0.008659  -0.000627  -0.006641
     6  C   -0.032473   0.002132   0.001285   0.019615  -0.010566   0.006647
     7  H    0.423124   0.001958  -0.000542   0.008933  -0.003426  -0.026664
     8  H    0.001958   0.397552  -0.008599   0.005958  -0.000531  -0.002748
     9  H   -0.000542  -0.008599   0.504632  -0.000742   0.000105   0.000070
    10  N    0.008933   0.005958  -0.000742   5.799906   0.078822   0.094862
    11  O   -0.003426  -0.000531   0.000105   0.078822   8.684421  -0.108880
    12  O   -0.026664  -0.002748   0.000070   0.094862  -0.108880   8.674860
    13  N    0.002186   0.000053   0.010963  -0.000195   0.000062   0.000073
    14  H   -0.000302  -0.000537   0.017567   0.000047  -0.000001  -0.000014
    15  H   -0.000159   0.000005  -0.003480  -0.000074   0.000001   0.000073
    16  C   -0.063704  -0.000850  -0.001067   0.000324  -0.000604  -0.004135
    17  C   -0.031810  -0.000429   0.000050  -0.000966   0.000019   0.000904
    18  C    0.010191  -0.000250  -0.000068  -0.000969   0.000012   0.000134
    19  C    0.000377   0.000008   0.000016   0.000178  -0.000011  -0.000404
    20  H    0.000903   0.000005  -0.000023   0.000202  -0.000004  -0.000612
    21  C    0.000816   0.000005   0.000057  -0.000007   0.000001   0.000129
    22  H    0.001399  -0.000011  -0.000371  -0.000067   0.000005   0.000036
    23  C    0.000149  -0.000001  -0.000005  -0.000008   0.000004  -0.000089
    24  H   -0.000581   0.000000   0.000000   0.000013  -0.000001  -0.000019
    25  H   -0.000096   0.000000   0.000002   0.000001   0.000000   0.000000
    26  H    0.000090   0.000000   0.000000   0.000000   0.000000  -0.000002
             13         14         15         16         17         18
     1  C   -0.003233   0.001989  -0.009829   0.128306   0.021596  -0.141311
     2  C    0.012996  -0.000508  -0.001372  -0.063979  -0.015297   0.001553
     3  C   -0.022615   0.003557  -0.002637  -0.011074  -0.001580  -0.006456
     4  C   -0.113455   0.048459  -0.027590  -0.019490  -0.004411  -0.028026
     5  C    0.147523  -0.089625   0.028254   0.182048  -0.052209  -0.244132
     6  C   -0.018516  -0.005276  -0.048201   0.143217  -0.019236  -0.157892
     7  H    0.002186  -0.000302  -0.000159  -0.063704  -0.031810   0.010191
     8  H    0.000053  -0.000537   0.000005  -0.000850  -0.000429  -0.000250
     9  H    0.010963   0.017567  -0.003480  -0.001067   0.000050  -0.000068
    10  N   -0.000195   0.000047  -0.000074   0.000324  -0.000966  -0.000969
    11  O    0.000062  -0.000001   0.000001  -0.000604   0.000019   0.000012
    12  O    0.000073  -0.000014   0.000073  -0.004135   0.000904   0.000134
    13  N    6.628819   0.324848   0.419244  -0.140947  -0.010498   0.151444
    14  H    0.324848   0.604221  -0.064608   0.013691   0.000561  -0.030645
    15  H    0.419244  -0.064608   0.485713  -0.019766   0.005284   0.006839
    16  C   -0.140947   0.013691  -0.019766   6.112674   0.220844  -0.359291
    17  C   -0.010498   0.000561   0.005284   0.220844   6.650332  -0.614582
    18  C    0.151444  -0.030645   0.006839  -0.359291  -0.614582   7.477004
    19  C    0.001149  -0.000281   0.000144  -0.133227   0.034365   0.155830
    20  H   -0.001139   0.000302  -0.000319  -0.083936   0.342401  -0.012159
    21  C   -0.007550   0.001493   0.000369  -0.088540   0.066967   0.054847
    22  H    0.026137  -0.003926   0.000129  -0.152467   0.005282   0.398129
    23  C   -0.004427   0.000249  -0.003460  -0.071021  -0.025360  -0.176977
    24  H   -0.000051   0.000009  -0.000083   0.014737  -0.087639   0.006575
    25  H   -0.000265   0.000002   0.000320   0.011804  -0.002518  -0.074675
    26  H    0.000143  -0.000008  -0.000082  -0.003965   0.015584   0.016632
             19         20         21         22         23         24
     1  C    0.013163  -0.020585  -0.005992  -0.016351  -0.004025   0.002913
     2  C   -0.002164   0.001904  -0.001050   0.000673   0.000187  -0.000127
     3  C   -0.000125   0.000180   0.000622  -0.000707   0.000013   0.000002
     4  C   -0.000509   0.000532  -0.000145  -0.002047   0.000706   0.000015
     5  C   -0.003624  -0.003519   0.024894  -0.037324   0.002445   0.000334
     6  C   -0.055171  -0.011286  -0.017024   0.004441   0.007514  -0.002887
     7  H    0.000377   0.000903   0.000816   0.001399   0.000149  -0.000581
     8  H    0.000008   0.000005   0.000005  -0.000011  -0.000001   0.000000
     9  H    0.000016  -0.000023   0.000057  -0.000371  -0.000005   0.000000
    10  N    0.000178   0.000202  -0.000007  -0.000067  -0.000008   0.000013
    11  O   -0.000011  -0.000004   0.000001   0.000005   0.000004  -0.000001
    12  O   -0.000404  -0.000612   0.000129   0.000036  -0.000089  -0.000019
    13  N    0.001149  -0.001139  -0.007550   0.026137  -0.004427  -0.000051
    14  H   -0.000281   0.000302   0.001493  -0.003926   0.000249   0.000009
    15  H    0.000144  -0.000319   0.000369   0.000129  -0.003460  -0.000083
    16  C   -0.133227  -0.083936  -0.088540  -0.152467  -0.071021   0.014737
    17  C    0.034365   0.342401   0.066967   0.005282  -0.025360  -0.087639
    18  C    0.155830  -0.012159   0.054847   0.398129  -0.176977   0.006575
    19  C    5.957402  -0.121299  -0.100568  -0.001918   0.338638   0.373240
    20  H   -0.121299   0.488222  -0.001040   0.002309   0.030204  -0.007342
    21  C   -0.100568  -0.001040   5.957790  -0.126819   0.332998   0.017640
    22  H   -0.001918   0.002309  -0.126819   0.504696   0.030358  -0.000594
    23  C    0.338638   0.030204   0.332998   0.030358   5.788504  -0.101354
    24  H    0.373240  -0.007342   0.017640  -0.000594  -0.101354   0.474569
    25  H    0.020957  -0.000349   0.372845  -0.009556  -0.101312   0.000717
    26  H   -0.083269   0.000643  -0.078599   0.000246   0.372596  -0.003675
             25         26
     1  C    0.001091  -0.000003
     2  C   -0.000037   0.000010
     3  C    0.000015   0.000000
     4  C    0.000019  -0.000001
     5  C    0.000085  -0.000303
     6  C   -0.000043   0.000248
     7  H   -0.000096   0.000090
     8  H    0.000000   0.000000
     9  H    0.000002   0.000000
    10  N    0.000001   0.000000
    11  O    0.000000   0.000000
    12  O    0.000000  -0.000002
    13  N   -0.000265   0.000143
    14  H    0.000002  -0.000008
    15  H    0.000320  -0.000082
    16  C    0.011804  -0.003965
    17  C   -0.002518   0.015584
    18  C   -0.074675   0.016632
    19  C    0.020957  -0.083269
    20  H   -0.000349   0.000643
    21  C    0.372845  -0.078599
    22  H   -0.009556   0.000246
    23  C   -0.101312   0.372596
    24  H    0.000717  -0.003675
    25  H    0.467901  -0.001957
    26  H   -0.001957   0.452439
 Mulliken atomic charges:
              1
     1  C   -0.507291
     2  C   -0.220299
     3  C   -0.359154
     4  C   -0.530217
     5  C    0.346831
     6  C    0.255724
     7  H    0.589244
     8  H    0.446947
     9  H    0.282234
    10  N    0.908066
    11  O   -0.595835
    12  O   -0.590958
    13  N   -0.402748
    14  H    0.178737
    15  H    0.235288
    16  C    0.390419
    17  C   -0.497653
    18  C   -0.431758
    19  C   -0.392900
    20  H    0.395802
    21  C   -0.404139
    22  H    0.378316
    23  C   -0.416527
    24  H    0.313588
    25  H    0.315048
    26  H    0.313234
 Sum of Mulliken atomic charges =   0.00000
 Mulliken charges with hydrogens summed into heavy atoms:
              1
     1  C    0.081954
     2  C   -0.220299
     3  C    0.087792
     4  C   -0.247983
     5  C    0.346831
     6  C    0.255724
    10  N    0.908066
    11  O   -0.595835
    12  O   -0.590958
    13  N    0.011277
    16  C    0.390419
    17  C   -0.101851
    18  C   -0.053442
    19  C   -0.079311
    21  C   -0.089091
    23  C   -0.103293
 Sum of Mulliken charges with hydrogens summed into heavy atoms =   0.00000
 Electronic spatial extent (au):  <R**2>=           4047.2493
 Charge=              0.0000 electrons
 Dipole moment (field-independent basis, Debye):
    X=             -5.4894    Y=              4.2890    Z=             -1.1732  Tot=              7.0644
 Quadrupole moment (field-independent basis, Debye-Ang):
   XX=           -103.3697   YY=            -86.8859   ZZ=            -92.0290
   XY=             11.0196   XZ=             -1.6157   YZ=              0.3693
 Traceless Quadrupole moment (field-independent basis, Debye-Ang):
   XX=             -9.2749   YY=              7.2090   ZZ=              2.0659
   XY=             11.0196   XZ=             -1.6157   YZ=              0.3693
 Octapole moment (field-independent basis, Debye-Ang**2):
  XXX=            -99.7594  YYY=             47.3497  ZZZ=              2.5559  XYY=            -12.1481
  XXY=             30.3421  XXZ=              1.6216  XZZ=              6.8691  YZZ=             -5.4101
  YYZ=            -19.8330  XYZ=             -3.9892
 Hexadecapole moment (field-independent basis, Debye-Ang**3):
 XXXX=          -4166.3553 YYYY=          -1085.3551 ZZZZ=           -265.3018 XXXY=            171.7477
 XXXZ=            -59.2175 YYYX=             15.4953 YYYZ=            -38.1959 ZZZX=              3.2717
 ZZZY=              7.4715 XXYY=           -877.8882 XXZZ=           -686.7440 YYZZ=           -238.5831
 XXYZ=             30.3928 YYXZ=             19.1677 ZZXY=            -23.8676
 N-N= 1.009524591326D+03 E-N=-3.704557803454D+03  KE= 7.201795311173D+02
 1\1\GINC-DLT06\SP\RTD-CAM-B3LYP-FC\Gen\C12H10N2O2\MATHEUSMAXIMO\18-Mar
 -2023\0\\# td=(nstates=15) cam-b3lyp/gen scf=qc int=ultrafine\\NA+C6H5
  CAM-B3LYP def2-TZVPD Single point\\0,1\C,0,0.86142339,-0.54089681,0.0
 7332366\C,0,2.17901716,-0.12489265,0.04048549\C,0,2.50186126,1.2131552
 8,-0.09869335\C,0,1.4870602,2.13146638,-0.21224988\C,0,0.14426141,1.73
 754204,-0.18571353\C,0,-0.17150854,0.37221238,-0.03051819\H,0,0.646863
 4,-1.59237429,0.1931648\H,0,3.53811069,1.51397218,-0.11942959\H,0,1.72
 386845,3.18138407,-0.3291204\N,0,3.24298657,-1.1111028,0.15694827\O,0,
 4.39159006,-0.7124918,0.13703455\O,0,2.92807782,-2.28035664,0.2662914\
 N,0,-0.83842593,2.68633646,-0.29519725\H,0,-0.58033415,3.58798138,-0.6
 5515241\H,0,-1.77294713,2.38421077,-0.50978031\C,0,-1.5777219,-0.10455
 148,-0.00111648\C,0,-2.0038257,-1.08526298,-0.89224425\C,0,-2.48882904
 ,0.38769926,0.93073168\C,0,-3.30309682,-1.56129635,-0.85437513\H,0,-1.
 30813238,-1.47414703,-1.62460304\C,0,-3.78819188,-0.08848499,0.9689614
 1\H,0,-2.16980257,1.13624167,1.644483\C,0,-4.19996885,-1.06330715,0.07
 546957\H,0,-3.61556645,-2.32341486,-1.55600346\H,0,-4.47896072,0.29764
 245,1.70699579\H,0,-5.21525089,-1.43564206,0.1062148\\Version=EM64L-G0
 9RevA.02\State=1-A\HF=-723.0915866\RMSD=0.000e+00\PG=C01 [X(C12H10N2O2
 )]\\@


 A MAN BEGINS CUTTING HIS WISDOM TEETH THE 1ST
 TIME HE BITES OFF MORE THAN HE CAN CHEW.
 Job cpu time:  3 days  7 hours 47 minutes 46.7 seconds.
 File lengths (MBytes):  RWF=    896 Int=      0 D2E=      0 Chk=    205 Scr=      1
 Normal termination of Gaussian 09 at Sat Mar 18 15:13:23 2023.
