 hostname is         dlt14.abaxnet
 this is node-proc. number 0 running on node dlt14.abaxnet
 the total number of node-proc. spawned is   1

 ricc2 (dlt14.abaxnet) : TURBOMOLE V6.6( 19125 ) 27 May 2014 at 14:24:19
 Copyright (C) 2014 TURBOMOLE GmbH, Karlsruhe


    2023-01-24 10:49:57.366 



                              R I C C 2 - PROGRAM

                          the quantum chemistry groups
                             at the universities in
                           Karlsruhe, Bochum & Mainz
                                   Germany



   *-----------------------------------------------------------------------*
   |                     program will use  1 thread(s)                     |
   *-----------------------------------------------------------------------*


              +--------------------------------------------------+
              | Atomic coordinate, charge and isotop information |
              +--------------------------------------------------+

                    atomic coordinates            atom    charge  isotop
         -0.89988280   -2.24971952    0.00000000    c      6.000     0
         -2.79625837   -0.47210123    0.00000000    c      6.000     0
         -2.25017524    2.09585118    0.00000000    c      6.000     0
          0.21546389    2.88772655    0.00000000    c      6.000     0
          2.20730616    1.13789584    0.00000000    c      6.000     0
          1.59685103   -1.45959641    0.00000000    c      6.000     0
         -1.36545542   -4.23569014    0.00000000    h      1.000     0
         -3.78717805    3.43751061    0.00000000    h      1.000     0
          0.64610292    4.88630796    0.00000000    h      1.000     0
         -5.42233685   -1.30112836    0.00000000    n      7.000     0
         -7.04874756    0.31841335    0.00000000    o      8.000     0
         -5.83182168   -3.55836992    0.00000000    o      8.000     0
          4.64086306    1.90759097    0.00000000    n      7.000     0
          5.07218266    3.75245289    0.00000000    h      1.000     0
          6.06660343    0.65207073    0.00000000    h      1.000     0
          3.61600411   -3.24310559    0.00000000    c      6.000     0
          5.34047874   -4.55610891    0.00000000    n      7.000     0
 
       center of nuclear mass  :   -0.70645685   -0.70033035    0.00000000
       center of nuclear charge:   -0.64718347   -0.62967642    0.00000000

              +--------------------------------------------------+
              |               basis set information              |
              +--------------------------------------------------+

              we will work with the 1s 3p 5d 7f 9g ... basis set
              ...i.e. with spherical basis functions...

   type   atoms  prim   cont   basis
   ---------------------------------------------------------------------------
    c        7     52     37   def2-TZVPD   [6s3p3d1f|12s6p3d1f]
    h        5     11      9   def2-TZVPD   [3s2p|5s2p]
    n        3     52     37   def2-TZVPD   [6s3p3d1f|12s6p3d1f]
    o        2     55     40   def2-TZVPD   [6s4p3d1f|12s7p3d1f]
   ---------------------------------------------------------------------------
   total:   17    685    495
   ---------------------------------------------------------------------------

   total number of primitive shells          :   74
   total number of contracted shells         :  183
   total number of cartesian basis functions :  567
   total number of SCF-basis functions       :  495



   =========================================================================


     restricted closed shell calculation for the wavefunction models:
               ADC(2)     - Algebraic Diagrammatic Construction to 2. Order (strict)


     global parameters for ricc2 program:

        hard restart (reuse of interm.) :  disabled
        soft restart (reuse of vectors) :  disabled
        threshold for vector function   :    0.100000E-06
        convergence threshold energy    :    0.100000E-07
        linear dependence threshold     :    0.100000E-13
        global print level              :      1
        maximum number of iterations    :   500
        maximum number DIIS vectors     :    10
        max. dim. of reduced space      :   100
        core memory limit (MB)          :   500
        disk space limit (MB)           :   none


   =========================================================================
     "cartesian on" in $drvopt is ignored by $ricc2

    der. integral neglect threshold  :  0.10E-08
    integral neglect threshold       :  0.59E-12
    integral storage threshold THIZE :  0.10E-04
    integral storage threshold THIME :         5


                  +------------------------------------------+
                  |     Auxiliary basis set information      |
                  +------------------------------------------+

              we will work with the 1s 3p 5d 7f 9g ... basis set
              ...i.e. with spherical basis functions...

   type   atoms  prim   cont   basis
   ---------------------------------------------------------------------------
    c        7     97     92   def2-TZVPD   [9s7p5d4f1g|9s7p6d4f1g]
    h        5     32     24   def2-TZVPD   [5s3p2d|5s4p3d]
    n        3     97     92   def2-TZVPD   [9s7p5d4f1g|9s7p6d4f1g]
    o        2     97     92   def2-TZVPD   [9s7p5d4f1g|9s7p6d4f1g]
   ---------------------------------------------------------------------------
   total:   17   1324   1224
   ---------------------------------------------------------------------------

   total number of primitive shells          :   93
   total number of contracted shells         :  362
   total number of cartesian basis functions : 1510
   total number of SCF-basis functions       : 1224


 symmetry group of the molecule :   cs

 the group has the following generators :
   c1(z)
   mirror plane sigma(xy)

    2 symmetry operations found

 there are 2 real representations :   a'   a"  

 maximum number of shells which are related by symmetry :  1


 The symmetry information takes   1 MB

*---------------------------------------------------------------------*
|      simplified algorithm for abelian symmetry will be applied      |
*---------------------------------------------------------------------*
  MOs are in ASCII format !


 reading orbital data $scfmo  from file mos . 

 orbital characterization : scfconv=7
 

         --------------------------------------------------------------
                   checking mo's by calculating trace(D*S)

              number of electrons : 
                 from trace(D*S)         :   84.000000000006
                 from occupation numbers :   84.000000000000

              molecular charge           :    0.000000000000
         --------------------------------------------------------------

 time elapsed for calculating density matrices :   0.016 sec
 all orbitals will be active in the correlation treatment


   Molecular Orbital Statistic:
   ============================


   --------------------------
    irred. repres.:   a'   a"
   --------------------------
   frozen occupied:    0    0
   active occupied:   35    7
   active virtual :  304  149
   frozen virtual :    0    0
   --------------------------
 

   -----------------------------
   orbitals in total:
   -----------------------------
    frozen occupied :      0
    active occupied :     42
    active virtual  :    453
    frozen virtual  :      0
    all together    :    495
   -----------------------------


     time in riccmos       cpu:  0.16 sec    wall:  0.31 sec    ratio:  0.5

     total memory allocated for calculation of (Q|P)**(-1/2) : 10 MiB


     calculation of (P|Q) ...
     time in lp2sym        cpu:  0.04 sec    wall:  0.04 sec    ratio:  1.0


     calculation of the Cholesky decomposition of (P|Q)**(-1) ...
     time in invmetri      cpu:  0.08 sec    wall:  0.14 sec    ratio:  0.6

   threshold for RMS(d[D]) in SCF was     :  0.10E-07
   integral neglect threshold             :  0.59E-12
   derivative integral neglect threshold  :  0.10E-08


 setting up bound for integral derivative estimation

 increment for numerical differentiation : 0.00050000

   =========================================================================

     Energy of reference wave function is  -581.1681047543000
     Maximum orbital residual is           0.1228901539522E-04


     Number of symmetry-nonredundant auxiliary basis functions:     1224

     Block lengths for integral files:
        frozen occupied (BOI):        0 MiB
        active occupied (BJI):        1 MiB
        active virtual  (BAI):        5 MiB
        frozen virtual  (BGI):        0 MiB
               general  (BTI):        5 MiB

   =========================================================================




   **************************************************************************
   *                                                                        *
   *          OPTIMIZATION OF THE GROUND STATE CLUSTER AMPLITUDES           *
   *                                                                        *
   **************************************************************************


   Iter.   MP2 energy       Norm(Omega)    Norm(t1)  Norm(t2)     cpu    wall
   ...........................................................................
    1   -583.5374750898    0.1798379732     0.00000   0.48881    0.61    0.85
   ...........................................................................


     time in total         cpu: 36.94 sec    wall: 51.25 sec    ratio:  0.7


     **********************************************************************
     *                                                                    *
     *   RHF  energy                             :   -581.1681047543      *
     *   MP2 correlation energy                  :     -2.3693703355      *
     *                                                                    *
     *   Final MP2 energy                        :   -583.5374750898      *
     *                                                                    *
     *   Norm of MP1 T2 amplitudes               :      0.4888083309      *
     *                                                                    *
     *   D1 diagnostic                           :      0.0578            *
     *                                                                    *
     **********************************************************************



 **************************************************************
 *                                                            *
 *    OPTIMIZATION OF THE EXCITED STATE CLUSTER AMPLITUDES    *
 *                                                            *
 **************************************************************


  preoptimize excitation energies/vectors using CCS:

  ==================================================


 ======== LINEAR CC RESPONSE SOLVER ========

    threshold for convergence: 0.10E-02
    maximum number of simultaneous jacoby matrix transformations: 15
                                                
     summary of start vectors generation:
     -------------------------------------------
     type of solution vectors      : RE0
     symmetry                      : a' 
     number of vectors requested   :    15
     number of vectors generated   :    15
       -- guessed as rhs/(e_a-e_i) :    15
     -------------------------------------------
                                                

    Iter  #Vectors  time (min)    max. residual 
    --------------------------------------------
      1      15         3.17     0.23E+00  (  6)
      2      15         3.12     0.74E-01  (  5)
      3      15         3.14     0.79E-01  (  7)
      4      15         3.16     0.66E-01  (  7)
      5      15         3.15     0.21E-01  (  7)
      6      13         2.82     0.10E-01  ( 12)
  dimension of red. space became too large.
  try internal restart...
      7      10         2.27     0.56E-02  ( 15)
                                                
     summary of start vectors generation:
     -------------------------------------------
     type of solution vectors      : RE0
     symmetry                      : a' 
     number of vectors requested   :    15
     number of vectors generated   :    15
       -- restarted from file      :    15
     -------------------------------------------
                                                

    Iter  #Vectors  time (min)    max. residual 
    --------------------------------------------
      8      15         3.24     0.56E-02  ( 15)
      9       8         1.82     0.34E-02  ( 15)
     10       4         0.91     0.19E-02  ( 15)
     11       3         0.70     0.97E-03  ( 15)
    --------------------------------------------
    converged in 11 iterations

         Total time         27.52 minutes


 ===========================================




 ======== LINEAR CC RESPONSE SOLVER ========

    threshold for convergence: 0.10E-02
    maximum number of simultaneous jacoby matrix transformations: 15
                                                
     summary of start vectors generation:
     -------------------------------------------
     type of solution vectors      : RE0
     symmetry                      : a" 
     number of vectors requested   :    15
     number of vectors generated   :    15
       -- guessed as rhs/(e_a-e_i) :    15
     -------------------------------------------
                                                

    Iter  #Vectors  time (min)    max. residual 
    --------------------------------------------
      1      15         3.14     0.50E-01  (  2)
      2      15         3.20     0.35E-01  ( 11)
      3      15         3.17     0.58E-01  (  4)
      4      15         3.31     0.22E+00  (  7)
      5      15         3.19     0.18E+00  (  4)
  dimension of red. space became too large.
  try internal restart...
      6      14         2.88     0.13E+00  (  9)
                                                
     summary of start vectors generation:
     -------------------------------------------
     type of solution vectors      : RE0
     symmetry                      : a" 
     number of vectors requested   :    15
     number of vectors generated   :    15
       -- restarted from file      :    15
     -------------------------------------------
                                                

    Iter  #Vectors  time (min)    max. residual 
    --------------------------------------------
      7      15         3.06     0.13E+00  (  9)
      8      14         2.84     0.76E-01  (  7)
      9      12         2.48     0.22E-01  (  7)
     10      11         2.29     0.73E-02  (  7)
     11       5         1.00     0.45E-02  ( 15)
     12       2         0.50     0.43E-02  ( 15)
     13       1         0.31     0.29E-02  ( 15)
     14       1         0.31     0.16E-02  ( 15)
     15       1         0.31     0.96E-03  ( 15)
    --------------------------------------------
    converged in 15 iterations

         Total time         31.99 minutes


 ===========================================




 Note that this is the intermediate result of a preoptimization!
 The convergence threshold was  0.1E-02 only!


 +==================================================================+
 | sym | multi | state |          CCS excitation energies           |
 |     |       |       +--------------------------------------------+
 |     |       |       |   Hartree    |     eV       |     cm-1     |
 +==================================================================+
 | a'  |   1   |   1   |    0.1980897 |      5.39030 |    43475.668 |
 | a'  |   1   |   2   |    0.2021329 |      5.50031 |    44363.033 |
 | a'  |   1   |   3   |    0.2482654 |      6.75565 |    54487.967 |
 | a'  |   1   |   4   |    0.2586843 |      7.03916 |    56774.649 |
 | a'  |   1   |   5   |    0.2749874 |      7.48279 |    60352.761 |
 | a'  |   1   |   6   |    0.2874702 |      7.82246 |    63092.417 |
 | a'  |   1   |   7   |    0.2992033 |      8.14174 |    65667.532 |
 | a'  |   1   |   8   |    0.3427890 |      9.32776 |    75233.489 |
 | a'  |   1   |   9   |    0.3482973 |      9.47765 |    76442.424 |
 | a'  |   1   |  10   |    0.3599594 |      9.79499 |    79001.963 |
 | a'  |   1   |  11   |    0.3629508 |      9.87639 |    79658.502 |
 | a'  |   1   |  12   |    0.3673830 |      9.99700 |    80631.244 |
 | a'  |   1   |  13   |    0.3719382 |     10.12095 |    81630.994 |
 | a'  |   1   |  14   |    0.3734587 |     10.16233 |    81964.707 |
 | a'  |   1   |  15   |    0.3768781 |     10.25538 |    82715.188 |
 +-----+-------+-------+--------------+--------------+--------------+
 | a"  |   1   |   1   |    0.1946334 |      5.29624 |    42717.089 |
 | a"  |   1   |   2   |    0.2058455 |      5.60134 |    45177.867 |
 | a"  |   1   |   3   |    0.2395606 |      6.51878 |    52577.474 |
 | a"  |   1   |   4   |    0.2560290 |      6.96690 |    56191.871 |
 | a"  |   1   |   5   |    0.2674735 |      7.27833 |    58703.656 |
 | a"  |   1   |   6   |    0.2746250 |      7.47293 |    60273.211 |
 | a"  |   1   |   7   |    0.2780965 |      7.56739 |    61035.116 |
 | a"  |   1   |   8   |    0.2938915 |      7.99719 |    64501.733 |
 | a"  |   1   |   9   |    0.3021460 |      8.22181 |    66313.387 |
 | a"  |   1   |  10   |    0.3137131 |      8.53657 |    68852.069 |
 | a"  |   1   |  11   |    0.3145811 |      8.56019 |    69042.561 |
 | a"  |   1   |  12   |    0.3241039 |      8.81932 |    71132.589 |
 | a"  |   1   |  13   |    0.3343448 |      9.09799 |    73380.210 |
 | a"  |   1   |  14   |    0.3358574 |      9.13915 |    73712.187 |
 | a"  |   1   |  15   |    0.3451663 |      9.39245 |    75755.256 |
 +==================================================================+




  preoptimize ADC(2) excitation energies/vectors using a quasi linear algorithm:
  ==============================================================================


 ======== LINEAR CC RESPONSE SOLVER ========

    threshold for convergence: 0.10E-02
    maximum number of simultaneous jacoby matrix transformations: 15
                                                
     summary of start vectors generation:
     -------------------------------------------
     type of solution vectors      : RE0
     symmetry                      : a' 
     number of vectors requested   :    15
     number of vectors generated   :    15
       -- restarted from file      :    15
     -------------------------------------------
                                                

    Iter  #Vectors  time (min)    max. residual 
    --------------------------------------------
 threshold for this macro iteration:  6.578273716078070E-002
      1      15        15.74     0.90E-01  (  4)
 ...adapted threshold to:  7.742128566840223E-002
      2       4         4.14     0.69E-01  (  1)
                                                
     summary of start vectors generation:
     -------------------------------------------
     type of solution vectors      : RE0
     symmetry                      : a' 
     number of vectors requested   :    15
     number of vectors generated   :    15
       -- restarted from file      :    15
     -------------------------------------------
                                                

    Iter  #Vectors  time (min)    max. residual 
    --------------------------------------------
 threshold for this macro iteration:  1.992415918044829E-002
      3      15        14.87     0.67E-01  (  1)
      4      15        14.71     0.67E-01  ( 15)
 ...adapted threshold to:  3.091634908164337E-002
      5       7         7.14     0.88E-01  ( 11)
 ...adapted threshold to:  3.933451988857450E-002
      6       4         4.18     0.76E-01  ( 14)
 ...adapted threshold to:  3.945594858188090E-002
      7       2         2.15     0.46E-01  ( 12)
 ...adapted threshold to:  3.952952730200066E-002
      8       1         1.19     0.34E-01  ( 11)
                                                
     summary of start vectors generation:
     -------------------------------------------
     type of solution vectors      : RE0
     symmetry                      : a' 
     number of vectors requested   :    15
     number of vectors generated   :    15
       -- restarted from file      :    15
     -------------------------------------------
                                                

    Iter  #Vectors  time (min)    max. residual 
    --------------------------------------------
 threshold for this macro iteration:  6.927289759514621E-003
      9      15        15.21     0.34E-01  ( 12)
     10      13        13.31     0.34E-01  ( 12)
     11       9         9.17     0.56E-01  ( 15)
 ...adapted threshold to:  1.366511621061106E-002
     12       3         3.07     0.41E-01  ( 15)
 ...adapted threshold to:  1.559776014337433E-002
     13       1         1.24     0.26E-01  ( 14)
 ...adapted threshold to:  1.570452531172223E-002
     14       1         1.19     0.21E-01  ( 14)
 ...adapted threshold to:  1.575533204138280E-002
     15       1         1.66     0.25E-01  ( 13)
 ...adapted threshold to:  1.588220252177935E-002
     16       1         1.16     0.20E-01  ( 13)
 ...adapted threshold to:  1.662847551771068E-002
     17       1         1.16     0.27E-01  ( 15)
 ...adapted threshold to:  1.765895715869192E-002
     18       1         1.17     0.14E-01  ( 15)
                                                
     summary of start vectors generation:
     -------------------------------------------
     type of solution vectors      : RE0
     symmetry                      : a' 
     number of vectors requested   :    15
     number of vectors generated   :    15
       -- restarted from file      :    15
     -------------------------------------------
                                                

    Iter  #Vectors  time (min)    max. residual 
    --------------------------------------------
 threshold for this macro iteration:  3.449914708620383E-003
     19      15        14.86     0.15E-01  ( 13)
 ...adapted threshold to:  3.453676266125971E-003
     20       2         2.10     0.15E-01  ( 13)
 ...adapted threshold to:  3.458119260293269E-003
     21       2         2.10     0.12E-01  ( 14)
 ...adapted threshold to:  3.463056544621701E-003
     22       2         2.68     0.10E-01  ( 14)
 ...adapted threshold to:  3.471973507830739E-003
     23       2         2.34     0.92E-02  ( 14)
 ...adapted threshold to:  3.529466937960357E-003
     24       3         3.32     0.81E-02  ( 14)
 ...adapted threshold to:  3.693241171898620E-003
     25       2         2.11     0.67E-02  ( 14)
 ...adapted threshold to:  3.814042150547592E-003
     26       3         3.06     0.55E-02  ( 14)
 ...adapted threshold to:  3.907289977514994E-003
     27       2         2.13     0.60E-02  ( 15)
 ...adapted threshold to:  3.981971030188880E-003
     28       2         2.14     0.62E-02  ( 15)
 ...adapted threshold to:  4.032660022987689E-003
     29       2         2.14     0.80E-02  ( 15)
 ...adapted threshold to:  4.075684617567688E-003
     30       2         2.11     0.84E-02  ( 15)
 ...adapted threshold to:  4.212243209740285E-003
     31       1         1.19     0.53E-02  ( 15)
 ...adapted threshold to:  4.264754894847400E-003
     32       1         1.19     0.40E-02  ( 15)
                                                
     summary of start vectors generation:
     -------------------------------------------
     type of solution vectors      : RE0
     symmetry                      : a' 
     number of vectors requested   :    15
     number of vectors generated   :    15
       -- restarted from file      :    15
     -------------------------------------------
                                                

    Iter  #Vectors  time (min)    max. residual 
    --------------------------------------------
 threshold for this macro iteration:  1.365905392938904E-003
     33      15        14.73     0.12E-02  ( 15)
                                                
     summary of start vectors generation:
     -------------------------------------------
     type of solution vectors      : RE0
     symmetry                      : a' 
     number of vectors requested   :    15
     number of vectors generated   :    15
       -- restarted from file      :    15
     -------------------------------------------
                                                

    Iter  #Vectors  time (min)    max. residual 
    --------------------------------------------
 threshold for this macro iteration:  1.000000000000000E-003
     34      15        14.68     0.89E-03  ( 15)
    --------------------------------------------
    converged in 34 iterations

         Total time        185.36 minutes


 ===========================================




 ======== LINEAR CC RESPONSE SOLVER ========

    threshold for convergence: 0.10E-02
    maximum number of simultaneous jacoby matrix transformations: 15
                                                
     summary of start vectors generation:
     -------------------------------------------
     type of solution vectors      : RE0
     symmetry                      : a" 
     number of vectors requested   :    15
     number of vectors generated   :    15
       -- restarted from file      :    15
     -------------------------------------------
                                                

    Iter  #Vectors  time (min)    max. residual 
    --------------------------------------------
 threshold for this macro iteration:  4.836356134017772E-002
      1      15        14.22     0.94E-01  (  1)
 ...adapted threshold to:  6.002533104377245E-002
      2       3         2.84     0.43E-01  (  9)
                                                
     summary of start vectors generation:
     -------------------------------------------
     type of solution vectors      : RE0
     symmetry                      : a" 
     number of vectors requested   :    15
     number of vectors generated   :    15
       -- restarted from file      :    15
     -------------------------------------------
                                                

    Iter  #Vectors  time (min)    max. residual 
    --------------------------------------------
 threshold for this macro iteration:  6.337457355112819E-003
      3      15        13.98     0.42E-01  (  6)
 ...adapted threshold to:  8.195071689831857E-003
      4      15        14.02     0.42E-01  (  7)
 ...adapted threshold to:  1.804849757153709E-002
      5      14        13.04     0.86E-01  (  4)
 ...adapted threshold to:  2.311955568916382E-002
      6       5         4.66     0.75E-01  ( 15)
 ...adapted threshold to:  2.673975726537398E-002
      7       4         3.78     0.14E+00  (  6)
 dabs(Rj-Ri):           1           4  8.411918098707721E-002
 dabs(Ij+Ii):           1           4  3.083399917312868E-003
 dabs(Rj-Ri):           2           4  6.037132454317620E-002
 dabs(Ij+Ii):           2           4  3.083399917312868E-003
 dabs(Rj-Ri):           3           4  6.520161943864622E-003
 dabs(Ij+Ii):           3           4  3.083399917312868E-003
 dabs(Rj-Ri):           5           4  0.000000000000000E+000
 dabs(Ij+Ii):           5           4  0.000000000000000E+000
 dabs(Rj-Ri):           6           4  2.147274595576604E-002
 dabs(Ij+Ii):           6           4  3.083399917312868E-003
 dabs(Rj-Ri):           7           4  2.805220013655962E-002
 dabs(Ij+Ii):           7           4  3.083399917312868E-003
 dabs(Rj-Ri):           8           4  3.657865656106263E-002
 dabs(Ij+Ii):           8           4  3.083399917312868E-003
 dabs(Rj-Ri):           9           4  5.069836440004466E-002
 dabs(Ij+Ii):           9           4  3.083399917312868E-003
 dabs(Rj-Ri):          10           4  5.307442190121364E-002
 dabs(Ij+Ii):          10           4  3.083399917312868E-003
 dabs(Rj-Ri):          11           4  5.850488284487332E-002
 dabs(Ij+Ii):          11           4  3.083399917312868E-003
 dabs(Rj-Ri):          12           4  6.474690390216403E-002
 dabs(Ij+Ii):          12           4  3.083399917312868E-003
 dabs(Rj-Ri):          13           4  6.552643820261039E-002
 dabs(Ij+Ii):          13           4  3.083399917312868E-003
 dabs(Rj-Ri):          14           4  6.850714189670404E-002
 dabs(Ij+Ii):          14           4  3.083399917312868E-003
 dabs(Rj-Ri):          15           4  7.724100466551154E-002
 dabs(Ij+Ii):          15           4  3.083399917312868E-003
 dabs(Rj-Ri):          16           4  8.064383651579066E-002
 dabs(Ij+Ii):          16           4  3.083399917312868E-003
 dabs(Rj-Ri):          17           4  8.587549776042858E-002
 dabs(Ij+Ii):          17           4  3.083399917312868E-003
 dabs(Rj-Ri):          18           4  8.802082602107703E-002
 dabs(Ij+Ii):          18           4  3.083399917312868E-003
 dabs(Rj-Ri):          19           4  9.623852490872709E-002
 dabs(Ij+Ii):          19           4  3.083399917312868E-003
 dabs(Rj-Ri):          20           4  0.105471868129167     
 dabs(Ij+Ii):          20           4  3.083399917312868E-003
 dabs(Rj-Ri):          21           4  0.108983970357504     
 dabs(Ij+Ii):          21           4  3.083399917312868E-003
 dabs(Rj-Ri):          22           4  0.113845264643547     
 dabs(Ij+Ii):          22           4  3.083399917312868E-003
 dabs(Rj-Ri):          23           4  0.126718082193921     
 dabs(Ij+Ii):          23           4  3.083399917312868E-003
 dabs(Rj-Ri):          24           4  0.144879150536517     
 dabs(Ij+Ii):          24           4  3.083399917312868E-003
 dabs(Rj-Ri):          25           4  0.150558667829311     
 dabs(Ij+Ii):          25           4  3.083399917312868E-003
 dabs(Rj-Ri):          26           4  0.155205852527567     
 dabs(Ij+Ii):          26           4  3.083399917312868E-003
 dabs(Rj-Ri):          27           4  0.173146536625189     
 dabs(Ij+Ii):          27           4  3.083399917312868E-003
 dabs(Rj-Ri):          28           4  0.179430221255859     
 dabs(Ij+Ii):          28           4  3.083399917312868E-003
 dabs(Rj-Ri):          29           4  0.180635917292451     
 dabs(Ij+Ii):          29           4  3.083399917312868E-003
 dabs(Rj-Ri):          30           4  0.191096924592272     
 dabs(Ij+Ii):          30           4  3.083399917312868E-003
 dabs(Rj-Ri):          31           4  0.195045308182671     
 dabs(Ij+Ii):          31           4  3.083399917312868E-003
 dabs(Rj-Ri):          32           4  0.210769204018406     
 dabs(Ij+Ii):          32           4  3.083399917312868E-003
 dabs(Rj-Ri):          33           4  0.226728086033100     
 dabs(Ij+Ii):          33           4  3.083399917312868E-003
 dabs(Rj-Ri):          34           4  0.263084645587528     
 dabs(Ij+Ii):          34           4  3.083399917312868E-003
 dabs(Rj-Ri):          35           4  0.277884757921350     
 dabs(Ij+Ii):          35           4  3.083399917312868E-003
 dabs(Rj-Ri):          36           4  0.323431521633554     
 dabs(Ij+Ii):          36           4  3.083399917312868E-003
 dabs(Rj-Ri):          37           4  0.337246518667558     
 dabs(Ij+Ii):          37           4  3.083399917312868E-003
 dabs(Rj-Ri):          38           4  0.344742121814332     
 dabs(Ij+Ii):          38           4  3.083399917312868E-003
 dabs(Rj-Ri):          39           4  0.370527813248828     
 dabs(Ij+Ii):          39           4  3.083399917312868E-003
 dabs(Rj-Ri):          40           4  0.398850752407894     
 dabs(Ij+Ii):          40           4  3.083399917312868E-003
 dabs(Rj-Ri):          41           4  0.409906117683574     
 dabs(Ij+Ii):          41           4  3.083399917312868E-003
 dabs(Rj-Ri):          42           4  0.420816720643746     
 dabs(Ij+Ii):          42           4  3.083399917312868E-003
 dabs(Rj-Ri):          43           4  0.435575846958458     
 dabs(Ij+Ii):          43           4  3.083399917312868E-003
 dabs(Rj-Ri):          44           4  0.448852148370222     
 dabs(Ij+Ii):          44           4  3.083399917312868E-003
 dabs(Rj-Ri):          45           4  0.485844451574301     
 dabs(Ij+Ii):          45           4  3.083399917312868E-003
 dabs(Rj-Ri):          46           4  0.513189230502092     
 dabs(Ij+Ii):          46           4  3.083399917312868E-003
 dabs(Rj-Ri):          47           4  0.571588517058846     
 dabs(Ij+Ii):          47           4  3.083399917312868E-003
 dabs(Rj-Ri):          48           4  0.599716969856352     
 dabs(Ij+Ii):          48           4  3.083399917312868E-003
 dabs(Rj-Ri):          49           4  0.658502007365686     
 dabs(Ij+Ii):          49           4  3.083399917312868E-003
 dabs(Rj-Ri):          50           4  0.806760505367383     
 dabs(Ij+Ii):          50           4  3.083399917312868E-003
 dabs(Rj-Ri):          51           4   1.05427958229076     
 dabs(Ij+Ii):          51           4  3.083399917312868E-003
 dabs(Rj-Ri):          52           4   1.09396528390334     
 dabs(Ij+Ii):          52           4  3.083399917312868E-003
 dabs(Rj-Ri):          53           4   1.57700831060871     
 dabs(Ij+Ii):          53           4  3.083399917312868E-003
 dabs(Rj-Ri):          54           4   1.79904080756658     
 dabs(Ij+Ii):          54           4  3.083399917312868E-003
 dabs(Rj-Ri):          55           4   1.94309209328258     
 dabs(Ij+Ii):          55           4  3.083399917312868E-003
 dabs(Rj-Ri):          56           4   2.27803144075382     
 dabs(Ij+Ii):          56           4  3.083399917312868E-003
 overlap matrix for complex pair:

              1             2
 
    1     0.57252888   -0.18261188
    2    -0.18261188    0.17659920
 real eigenvalues of metric:

              1
 
    1     0.64389131
    2     0.10523678
 eigenvectors of metric:

              1             2
 
    1     0.93140607    0.36398179
    2    -0.36398179    0.93140607
 inverse square root of overlap matrix:

              1             2
 
    1     1.48950528    0.62255879
    2     0.62255879    2.83930518
 recalculated overlap matrix for complex pair:

              1             2
 
    1     1.00000000   -0.00000000
    2    -0.00000000    1.00000000
 dabs(Rj-Ri):           1           5  8.411918098707721E-002
 dabs(Ij+Ii):           1           5  3.083399917312868E-003
 dabs(Rj-Ri):           2           5  6.037132454317620E-002
 dabs(Ij+Ii):           2           5  3.083399917312868E-003
 dabs(Rj-Ri):           3           5  6.520161943864622E-003
 dabs(Ij+Ii):           3           5  3.083399917312868E-003
 dabs(Rj-Ri):           4           5  0.000000000000000E+000
 dabs(Ij+Ii):           4           5  0.000000000000000E+000
 dabs(Rj-Ri):           6           5  2.147274595576604E-002
 dabs(Ij+Ii):           6           5  3.083399917312868E-003
 dabs(Rj-Ri):           7           5  2.805220013655962E-002
 dabs(Ij+Ii):           7           5  3.083399917312868E-003
 dabs(Rj-Ri):           8           5  3.657865656106263E-002
 dabs(Ij+Ii):           8           5  3.083399917312868E-003
 dabs(Rj-Ri):           9           5  5.069836440004466E-002
 dabs(Ij+Ii):           9           5  3.083399917312868E-003
 dabs(Rj-Ri):          10           5  5.307442190121364E-002
 dabs(Ij+Ii):          10           5  3.083399917312868E-003
 dabs(Rj-Ri):          11           5  5.850488284487332E-002
 dabs(Ij+Ii):          11           5  3.083399917312868E-003
 dabs(Rj-Ri):          12           5  6.474690390216403E-002
 dabs(Ij+Ii):          12           5  3.083399917312868E-003
 dabs(Rj-Ri):          13           5  6.552643820261039E-002
 dabs(Ij+Ii):          13           5  3.083399917312868E-003
 dabs(Rj-Ri):          14           5  6.850714189670404E-002
 dabs(Ij+Ii):          14           5  3.083399917312868E-003
 dabs(Rj-Ri):          15           5  7.724100466551154E-002
 dabs(Ij+Ii):          15           5  3.083399917312868E-003
 dabs(Rj-Ri):          16           5  8.064383651579066E-002
 dabs(Ij+Ii):          16           5  3.083399917312868E-003
 dabs(Rj-Ri):          17           5  8.587549776042858E-002
 dabs(Ij+Ii):          17           5  3.083399917312868E-003
 dabs(Rj-Ri):          18           5  8.802082602107703E-002
 dabs(Ij+Ii):          18           5  3.083399917312868E-003
 dabs(Rj-Ri):          19           5  9.623852490872709E-002
 dabs(Ij+Ii):          19           5  3.083399917312868E-003
 dabs(Rj-Ri):          20           5  0.105471868129167     
 dabs(Ij+Ii):          20           5  3.083399917312868E-003
 dabs(Rj-Ri):          21           5  0.108983970357504     
 dabs(Ij+Ii):          21           5  3.083399917312868E-003
 dabs(Rj-Ri):          22           5  0.113845264643547     
 dabs(Ij+Ii):          22           5  3.083399917312868E-003
 dabs(Rj-Ri):          23           5  0.126718082193921     
 dabs(Ij+Ii):          23           5  3.083399917312868E-003
 dabs(Rj-Ri):          24           5  0.144879150536517     
 dabs(Ij+Ii):          24           5  3.083399917312868E-003
 dabs(Rj-Ri):          25           5  0.150558667829311     
 dabs(Ij+Ii):          25           5  3.083399917312868E-003
 dabs(Rj-Ri):          26           5  0.155205852527567     
 dabs(Ij+Ii):          26           5  3.083399917312868E-003
 dabs(Rj-Ri):          27           5  0.173146536625189     
 dabs(Ij+Ii):          27           5  3.083399917312868E-003
 dabs(Rj-Ri):          28           5  0.179430221255859     
 dabs(Ij+Ii):          28           5  3.083399917312868E-003
 dabs(Rj-Ri):          29           5  0.180635917292451     
 dabs(Ij+Ii):          29           5  3.083399917312868E-003
 dabs(Rj-Ri):          30           5  0.191096924592272     
 dabs(Ij+Ii):          30           5  3.083399917312868E-003
 dabs(Rj-Ri):          31           5  0.195045308182671     
 dabs(Ij+Ii):          31           5  3.083399917312868E-003
 dabs(Rj-Ri):          32           5  0.210769204018406     
 dabs(Ij+Ii):          32           5  3.083399917312868E-003
 dabs(Rj-Ri):          33           5  0.226728086033100     
 dabs(Ij+Ii):          33           5  3.083399917312868E-003
 dabs(Rj-Ri):          34           5  0.263084645587528     
 dabs(Ij+Ii):          34           5  3.083399917312868E-003
 dabs(Rj-Ri):          35           5  0.277884757921350     
 dabs(Ij+Ii):          35           5  3.083399917312868E-003
 dabs(Rj-Ri):          36           5  0.323431521633554     
 dabs(Ij+Ii):          36           5  3.083399917312868E-003
 dabs(Rj-Ri):          37           5  0.337246518667558     
 dabs(Ij+Ii):          37           5  3.083399917312868E-003
 dabs(Rj-Ri):          38           5  0.344742121814332     
 dabs(Ij+Ii):          38           5  3.083399917312868E-003
 dabs(Rj-Ri):          39           5  0.370527813248828     
 dabs(Ij+Ii):          39           5  3.083399917312868E-003
 dabs(Rj-Ri):          40           5  0.398850752407894     
 dabs(Ij+Ii):          40           5  3.083399917312868E-003
 dabs(Rj-Ri):          41           5  0.409906117683574     
 dabs(Ij+Ii):          41           5  3.083399917312868E-003
 dabs(Rj-Ri):          42           5  0.420816720643746     
 dabs(Ij+Ii):          42           5  3.083399917312868E-003
 dabs(Rj-Ri):          43           5  0.435575846958458     
 dabs(Ij+Ii):          43           5  3.083399917312868E-003
 dabs(Rj-Ri):          44           5  0.448852148370222     
 dabs(Ij+Ii):          44           5  3.083399917312868E-003
 dabs(Rj-Ri):          45           5  0.485844451574301     
 dabs(Ij+Ii):          45           5  3.083399917312868E-003
 dabs(Rj-Ri):          46           5  0.513189230502092     
 dabs(Ij+Ii):          46           5  3.083399917312868E-003
 dabs(Rj-Ri):          47           5  0.571588517058846     
 dabs(Ij+Ii):          47           5  3.083399917312868E-003
 dabs(Rj-Ri):          48           5  0.599716969856352     
 dabs(Ij+Ii):          48           5  3.083399917312868E-003
 dabs(Rj-Ri):          49           5  0.658502007365686     
 dabs(Ij+Ii):          49           5  3.083399917312868E-003
 dabs(Rj-Ri):          50           5  0.806760505367383     
 dabs(Ij+Ii):          50           5  3.083399917312868E-003
 dabs(Rj-Ri):          51           5   1.05427958229076     
 dabs(Ij+Ii):          51           5  3.083399917312868E-003
 dabs(Rj-Ri):          52           5   1.09396528390334     
 dabs(Ij+Ii):          52           5  3.083399917312868E-003
 dabs(Rj-Ri):          53           5   1.57700831060871     
 dabs(Ij+Ii):          53           5  3.083399917312868E-003
 dabs(Rj-Ri):          54           5   1.79904080756658     
 dabs(Ij+Ii):          54           5  3.083399917312868E-003
 dabs(Rj-Ri):          55           5   1.94309209328258     
 dabs(Ij+Ii):          55           5  3.083399917312868E-003
 dabs(Rj-Ri):          56           5   2.27803144075382     
 dabs(Ij+Ii):          56           5  3.083399917312868E-003
 overlap matrix for complex pair:

              1             2
 
    1     1.00000000   -0.00000000
    2    -0.00000000    1.00000000
 real eigenvalues of metric:

              1
 
    1     1.00000000
    2     1.00000000
 eigenvectors of metric:

              1             2
 
    1     0.87997709    0.47501613
    2    -0.47501613    0.87997709
 inverse square root of overlap matrix:

              1             2
 
    1     1.00000000    0.00000000
    2     0.00000000    1.00000000
 recalculated overlap matrix for complex pair:

              1             2
 
    1     1.00000000    0.00000000
    2     0.00000000    1.00000000
 warning> found low lying complex root...
 eigenvalues (imaginary parts) in redeig:

              1
 
    1     0.00000000
    2     0.00000000
    3     0.00000000
    4    -0.00308340
    5     0.00308340
    6     0.00000000
    7     0.00000000
    8     0.00000000
    9     0.00000000
   10     0.00000000
   11     0.00000000
   12     0.00000000
   13     0.00000000
   14     0.00000000
   15     0.00000000
   16     0.00000000
   17     0.00000000
   18     0.00000000
   19     0.00000000
   20     0.00000000
   21     0.00000000
   22     0.00000000
   23     0.00000000
   24     0.00000000
   25     0.00000000
   26     0.00000000
   27     0.00000000
   28     0.00000000
   29     0.00000000
   30     0.00000000
   31     0.00000000
   32     0.00000000
   33     0.00000000
   34     0.00000000
   35     0.00000000
   36     0.00000000
   37     0.00000000
   38     0.00000000
   39     0.00000000
   40     0.00000000
   41     0.00000000
   42     0.00000000
   43     0.00000000
   44     0.00000000
   45     0.00000000
   46     0.00000000
   47     0.00000000
   48     0.00000000
   49     0.00000000
   50     0.00000000
   51     0.00000000
   52     0.00000000
   53     0.00000000
   54     0.00000000
   55     0.00000000
   56     0.00000000
 eigenvalues (real parts) in redeig:

              1
 
    1     0.13981336
    2     0.16356122
    3     0.21741238
    4     0.22393254
    5     0.22393254
    6     0.24540529
    7     0.25198474
    8     0.26051120
    9     0.27463090
   10     0.27700696
   11     0.28243742
   12     0.28867944
   13     0.28945898
   14     0.29243968
   15     0.30117354
   16     0.30457638
   17     0.30980804
   18     0.31195337
   19     0.32017107
   20     0.32940441
   21     0.33291651
   22     0.33777780
   23     0.35065062
   24     0.36881169
   25     0.37449121
   26     0.37913839
   27     0.39707908
   28     0.40336276
   29     0.40456846
   30     0.41502946
   31     0.41897785
   32     0.43470174
   33     0.45066063
   34     0.48701719
   35     0.50181730
   36     0.54736406
   37     0.56117906
   38     0.56867466
   39     0.59446035
   40     0.62278329
   41     0.63383866
   42     0.64474926
   43     0.65950839
   44     0.67278469
   45     0.70977699
   46     0.73712177
   47     0.79552106
   48     0.82364951
   49     0.88243455
   50     1.03069305
   51     1.27821212
   52     1.31789782
   53     1.80094085
   54     2.02297335
   55     2.16702463
   56     2.50196398
 ...adapted threshold to:  2.975656809292637E-002
      8       3         2.84     0.50E-01  (  5)
 dabs(Rj-Ri):           1           4  8.221845184939891E-002
 dabs(Ij+Ii):           1           4  3.858333221207414E-003
 dabs(Rj-Ri):           2           4  5.847042725446150E-002
 dabs(Ij+Ii):           2           4  3.858333221207414E-003
 dabs(Rj-Ri):           3           4  4.617446567380834E-003
 dabs(Ij+Ii):           3           4  3.858333221207414E-003
 dabs(Rj-Ri):           5           4  0.000000000000000E+000
 dabs(Ij+Ii):           5           4  0.000000000000000E+000
 dabs(Rj-Ri):           6           4  2.337180057045396E-002
 dabs(Ij+Ii):           6           4  3.858333221207414E-003
 dabs(Rj-Ri):           7           4  2.995475448212997E-002
 dabs(Ij+Ii):           7           4  3.858333221207414E-003
 dabs(Rj-Ri):           8           4  3.840674522509807E-002
 dabs(Ij+Ii):           8           4  3.858333221207414E-003
 dabs(Rj-Ri):           9           4  5.259756670881333E-002
 dabs(Ij+Ii):           9           4  3.858333221207414E-003
 dabs(Rj-Ri):          10           4  5.496734924471086E-002
 dabs(Ij+Ii):          10           4  3.858333221207414E-003
 dabs(Rj-Ri):          11           4  6.020817384912236E-002
 dabs(Ij+Ii):          11           4  3.858333221207414E-003
 dabs(Rj-Ri):          12           4  6.430684338309667E-002
 dabs(Ij+Ii):          12           4  3.858333221207414E-003
 dabs(Rj-Ri):          13           4  6.730887749517594E-002
 dabs(Ij+Ii):          13           4  3.858333221207414E-003
 dabs(Rj-Ri):          14           4  7.040554591227444E-002
 dabs(Ij+Ii):          14           4  3.858333221207414E-003
 dabs(Rj-Ri):          15           4  7.817113011588844E-002
 dabs(Ij+Ii):          15           4  3.858333221207414E-003
 dabs(Rj-Ri):          16           4  7.910997032609818E-002
 dabs(Ij+Ii):          16           4  3.858333221207414E-003
 dabs(Rj-Ri):          17           4  8.251038215295226E-002
 dabs(Ij+Ii):          17           4  3.858333221207414E-003
 dabs(Rj-Ri):          18           4  8.734355101381297E-002
 dabs(Ij+Ii):          18           4  3.858333221207414E-003
 dabs(Rj-Ri):          19           4  9.771444752412745E-002
 dabs(Ij+Ii):          19           4  3.858333221207414E-003
 dabs(Rj-Ri):          20           4  0.101231981169518     
 dabs(Ij+Ii):          20           4  3.858333221207414E-003
 dabs(Rj-Ri):          21           4  0.109049321457871     
 dabs(Ij+Ii):          21           4  3.858333221207414E-003
 dabs(Rj-Ri):          22           4  0.114403149468258     
 dabs(Ij+Ii):          22           4  3.858333221207414E-003
 dabs(Rj-Ri):          23           4  0.126061606775449     
 dabs(Ij+Ii):          23           4  3.858333221207414E-003
 dabs(Rj-Ri):          24           4  0.144549878579891     
 dabs(Ij+Ii):          24           4  3.858333221207414E-003
 dabs(Rj-Ri):          25           4  0.150415366481262     
 dabs(Ij+Ii):          25           4  3.858333221207414E-003
 dabs(Rj-Ri):          26           4  0.153146822668544     
 dabs(Ij+Ii):          26           4  3.858333221207414E-003
 dabs(Rj-Ri):          27           4  0.169681696527676     
 dabs(Ij+Ii):          27           4  3.858333221207414E-003
 dabs(Rj-Ri):          28           4  0.176690092361759     
 dabs(Ij+Ii):          28           4  3.858333221207414E-003
 dabs(Rj-Ri):          29           4  0.181173991748238     
 dabs(Ij+Ii):          29           4  3.858333221207414E-003
 dabs(Rj-Ri):          30           4  0.190081658374126     
 dabs(Ij+Ii):          30           4  3.858333221207414E-003
 dabs(Rj-Ri):          31           4  0.195914684388758     
 dabs(Ij+Ii):          31           4  3.858333221207414E-003
 dabs(Rj-Ri):          32           4  0.202732449659519     
 dabs(Ij+Ii):          32           4  3.858333221207414E-003
 dabs(Rj-Ri):          33           4  0.218836923442494     
 dabs(Ij+Ii):          33           4  3.858333221207414E-003
 dabs(Rj-Ri):          34           4  0.230744161860495     
 dabs(Ij+Ii):          34           4  3.858333221207414E-003
 dabs(Rj-Ri):          35           4  0.262885920405796     
 dabs(Ij+Ii):          35           4  3.858333221207414E-003
 dabs(Rj-Ri):          36           4  0.273424027920010     
 dabs(Ij+Ii):          36           4  3.858333221207414E-003
 dabs(Rj-Ri):          37           4  0.306845262917294     
 dabs(Ij+Ii):          37           4  3.858333221207414E-003
 dabs(Rj-Ri):          38           4  0.325826322274181     
 dabs(Ij+Ii):          38           4  3.858333221207414E-003
 dabs(Rj-Ri):          39           4  0.342802061259802     
 dabs(Ij+Ii):          39           4  3.858333221207414E-003
 dabs(Rj-Ri):          40           4  0.360501483269596     
 dabs(Ij+Ii):          40           4  3.858333221207414E-003
 dabs(Rj-Ri):          41           4  0.394902327146436     
 dabs(Ij+Ii):          41           4  3.858333221207414E-003
 dabs(Rj-Ri):          42           4  0.413947839875942     
 dabs(Ij+Ii):          42           4  3.858333221207414E-003
 dabs(Rj-Ri):          43           4  0.421230723497331     
 dabs(Ij+Ii):          43           4  3.858333221207414E-003
 dabs(Rj-Ri):          44           4  0.431898719866113     
 dabs(Ij+Ii):          44           4  3.858333221207414E-003
 dabs(Rj-Ri):          45           4  0.446857602248978     
 dabs(Ij+Ii):          45           4  3.858333221207414E-003
 dabs(Rj-Ri):          46           4  0.473502067170527     
 dabs(Ij+Ii):          46           4  3.858333221207414E-003
 dabs(Rj-Ri):          47           4  0.502926704823335     
 dabs(Ij+Ii):          47           4  3.858333221207414E-003
 dabs(Rj-Ri):          48           4  0.578302137795800     
 dabs(Ij+Ii):          48           4  3.858333221207414E-003
 dabs(Rj-Ri):          49           4  0.616556186957415     
 dabs(Ij+Ii):          49           4  3.858333221207414E-003
 dabs(Rj-Ri):          50           4  0.630050165750813     
 dabs(Ij+Ii):          50           4  3.858333221207414E-003
 dabs(Rj-Ri):          51           4  0.696781218623313     
 dabs(Ij+Ii):          51           4  3.858333221207414E-003
 dabs(Rj-Ri):          52           4  0.865984890009248     
 dabs(Ij+Ii):          52           4  3.858333221207414E-003
 dabs(Rj-Ri):          53           4   1.18224618352598     
 dabs(Ij+Ii):          53           4  3.858333221207414E-003
 dabs(Rj-Ri):          54           4   1.33950255470610     
 dabs(Ij+Ii):          54           4  3.858333221207414E-003
 dabs(Rj-Ri):          55           4   1.68587428759693     
 dabs(Ij+Ii):          55           4  3.858333221207414E-003
 dabs(Rj-Ri):          56           4   1.94650011225944     
 dabs(Ij+Ii):          56           4  3.858333221207414E-003
 dabs(Rj-Ri):          57           4   2.04360245580898     
 dabs(Ij+Ii):          57           4  3.858333221207414E-003
 dabs(Rj-Ri):          58           4   2.38018909223551     
 dabs(Ij+Ii):          58           4  3.858333221207414E-003
 overlap matrix for complex pair:

              1             2
 
    1     0.18593300   -0.13833305
    2    -0.13833305    0.42815117
 real eigenvalues of metric:

              1
 
    1     0.12318496
    2     0.49089921
 eigenvectors of metric:

              1             2
 
    1     0.91069013   -0.41309018
    2     0.41309018    0.91069013
 inverse square root of overlap matrix:

              1             2
 
    1     2.60654596    0.53492448
    2     0.53492448    1.66990484
 recalculated overlap matrix for complex pair:

              1             2
 
    1     1.00000000    0.00000000
    2     0.00000000    1.00000000
 dabs(Rj-Ri):           1           5  8.221845184939891E-002
 dabs(Ij+Ii):           1           5  3.858333221207414E-003
 dabs(Rj-Ri):           2           5  5.847042725446150E-002
 dabs(Ij+Ii):           2           5  3.858333221207414E-003
 dabs(Rj-Ri):           3           5  4.617446567380834E-003
 dabs(Ij+Ii):           3           5  3.858333221207414E-003
 dabs(Rj-Ri):           4           5  0.000000000000000E+000
 dabs(Ij+Ii):           4           5  0.000000000000000E+000
 dabs(Rj-Ri):           6           5  2.337180057045396E-002
 dabs(Ij+Ii):           6           5  3.858333221207414E-003
 dabs(Rj-Ri):           7           5  2.995475448212997E-002
 dabs(Ij+Ii):           7           5  3.858333221207414E-003
 dabs(Rj-Ri):           8           5  3.840674522509807E-002
 dabs(Ij+Ii):           8           5  3.858333221207414E-003
 dabs(Rj-Ri):           9           5  5.259756670881333E-002
 dabs(Ij+Ii):           9           5  3.858333221207414E-003
 dabs(Rj-Ri):          10           5  5.496734924471086E-002
 dabs(Ij+Ii):          10           5  3.858333221207414E-003
 dabs(Rj-Ri):          11           5  6.020817384912236E-002
 dabs(Ij+Ii):          11           5  3.858333221207414E-003
 dabs(Rj-Ri):          12           5  6.430684338309667E-002
 dabs(Ij+Ii):          12           5  3.858333221207414E-003
 dabs(Rj-Ri):          13           5  6.730887749517594E-002
 dabs(Ij+Ii):          13           5  3.858333221207414E-003
 dabs(Rj-Ri):          14           5  7.040554591227444E-002
 dabs(Ij+Ii):          14           5  3.858333221207414E-003
 dabs(Rj-Ri):          15           5  7.817113011588844E-002
 dabs(Ij+Ii):          15           5  3.858333221207414E-003
 dabs(Rj-Ri):          16           5  7.910997032609818E-002
 dabs(Ij+Ii):          16           5  3.858333221207414E-003
 dabs(Rj-Ri):          17           5  8.251038215295226E-002
 dabs(Ij+Ii):          17           5  3.858333221207414E-003
 dabs(Rj-Ri):          18           5  8.734355101381297E-002
 dabs(Ij+Ii):          18           5  3.858333221207414E-003
 dabs(Rj-Ri):          19           5  9.771444752412745E-002
 dabs(Ij+Ii):          19           5  3.858333221207414E-003
 dabs(Rj-Ri):          20           5  0.101231981169518     
 dabs(Ij+Ii):          20           5  3.858333221207414E-003
 dabs(Rj-Ri):          21           5  0.109049321457871     
 dabs(Ij+Ii):          21           5  3.858333221207414E-003
 dabs(Rj-Ri):          22           5  0.114403149468258     
 dabs(Ij+Ii):          22           5  3.858333221207414E-003
 dabs(Rj-Ri):          23           5  0.126061606775449     
 dabs(Ij+Ii):          23           5  3.858333221207414E-003
 dabs(Rj-Ri):          24           5  0.144549878579891     
 dabs(Ij+Ii):          24           5  3.858333221207414E-003
 dabs(Rj-Ri):          25           5  0.150415366481262     
 dabs(Ij+Ii):          25           5  3.858333221207414E-003
 dabs(Rj-Ri):          26           5  0.153146822668544     
 dabs(Ij+Ii):          26           5  3.858333221207414E-003
 dabs(Rj-Ri):          27           5  0.169681696527676     
 dabs(Ij+Ii):          27           5  3.858333221207414E-003
 dabs(Rj-Ri):          28           5  0.176690092361759     
 dabs(Ij+Ii):          28           5  3.858333221207414E-003
 dabs(Rj-Ri):          29           5  0.181173991748238     
 dabs(Ij+Ii):          29           5  3.858333221207414E-003
 dabs(Rj-Ri):          30           5  0.190081658374126     
 dabs(Ij+Ii):          30           5  3.858333221207414E-003
 dabs(Rj-Ri):          31           5  0.195914684388758     
 dabs(Ij+Ii):          31           5  3.858333221207414E-003
 dabs(Rj-Ri):          32           5  0.202732449659519     
 dabs(Ij+Ii):          32           5  3.858333221207414E-003
 dabs(Rj-Ri):          33           5  0.218836923442494     
 dabs(Ij+Ii):          33           5  3.858333221207414E-003
 dabs(Rj-Ri):          34           5  0.230744161860495     
 dabs(Ij+Ii):          34           5  3.858333221207414E-003
 dabs(Rj-Ri):          35           5  0.262885920405796     
 dabs(Ij+Ii):          35           5  3.858333221207414E-003
 dabs(Rj-Ri):          36           5  0.273424027920010     
 dabs(Ij+Ii):          36           5  3.858333221207414E-003
 dabs(Rj-Ri):          37           5  0.306845262917294     
 dabs(Ij+Ii):          37           5  3.858333221207414E-003
 dabs(Rj-Ri):          38           5  0.325826322274181     
 dabs(Ij+Ii):          38           5  3.858333221207414E-003
 dabs(Rj-Ri):          39           5  0.342802061259802     
 dabs(Ij+Ii):          39           5  3.858333221207414E-003
 dabs(Rj-Ri):          40           5  0.360501483269596     
 dabs(Ij+Ii):          40           5  3.858333221207414E-003
 dabs(Rj-Ri):          41           5  0.394902327146436     
 dabs(Ij+Ii):          41           5  3.858333221207414E-003
 dabs(Rj-Ri):          42           5  0.413947839875942     
 dabs(Ij+Ii):          42           5  3.858333221207414E-003
 dabs(Rj-Ri):          43           5  0.421230723497331     
 dabs(Ij+Ii):          43           5  3.858333221207414E-003
 dabs(Rj-Ri):          44           5  0.431898719866113     
 dabs(Ij+Ii):          44           5  3.858333221207414E-003
 dabs(Rj-Ri):          45           5  0.446857602248978     
 dabs(Ij+Ii):          45           5  3.858333221207414E-003
 dabs(Rj-Ri):          46           5  0.473502067170527     
 dabs(Ij+Ii):          46           5  3.858333221207414E-003
 dabs(Rj-Ri):          47           5  0.502926704823335     
 dabs(Ij+Ii):          47           5  3.858333221207414E-003
 dabs(Rj-Ri):          48           5  0.578302137795800     
 dabs(Ij+Ii):          48           5  3.858333221207414E-003
 dabs(Rj-Ri):          49           5  0.616556186957415     
 dabs(Ij+Ii):          49           5  3.858333221207414E-003
 dabs(Rj-Ri):          50           5  0.630050165750813     
 dabs(Ij+Ii):          50           5  3.858333221207414E-003
 dabs(Rj-Ri):          51           5  0.696781218623313     
 dabs(Ij+Ii):          51           5  3.858333221207414E-003
 dabs(Rj-Ri):          52           5  0.865984890009248     
 dabs(Ij+Ii):          52           5  3.858333221207414E-003
 dabs(Rj-Ri):          53           5   1.18224618352598     
 dabs(Ij+Ii):          53           5  3.858333221207414E-003
 dabs(Rj-Ri):          54           5   1.33950255470610     
 dabs(Ij+Ii):          54           5  3.858333221207414E-003
 dabs(Rj-Ri):          55           5   1.68587428759693     
 dabs(Ij+Ii):          55           5  3.858333221207414E-003
 dabs(Rj-Ri):          56           5   1.94650011225944     
 dabs(Ij+Ii):          56           5  3.858333221207414E-003
 dabs(Rj-Ri):          57           5   2.04360245580898     
 dabs(Ij+Ii):          57           5  3.858333221207414E-003
 dabs(Rj-Ri):          58           5   2.38018909223551     
 dabs(Ij+Ii):          58           5  3.858333221207414E-003
 overlap matrix for complex pair:

              1             2
 
    1     1.00000000    0.00000000
    2     0.00000000    1.00000000
 real eigenvalues of metric:

              1
 
    1     1.00000000
    2     1.00000000
 eigenvectors of metric:

              1             2
 
    1     0.92174546    0.38779545
    2    -0.38779545    0.92174546
 inverse square root of overlap matrix:

              1             2
 
    1     1.00000000   -0.00000000
    2    -0.00000000    1.00000000
 recalculated overlap matrix for complex pair:

              1             2
 
    1     1.00000000   -0.00000000
    2     0.00000000    1.00000000
 warning> found low lying complex root...
 eigenvalues (imaginary parts) in redeig:

              1
 
    1     0.00000000
    2     0.00000000
    3     0.00000000
    4    -0.00385833
    5     0.00385833
    6     0.00000000
    7     0.00000000
    8     0.00000000
    9     0.00000000
   10     0.00000000
   11     0.00000000
   12     0.00000000
   13     0.00000000
   14     0.00000000
   15     0.00000000
   16     0.00000000
   17     0.00000000
   18     0.00000000
   19     0.00000000
   20     0.00000000
   21     0.00000000
   22     0.00000000
   23     0.00000000
   24     0.00000000
   25     0.00000000
   26     0.00000000
   27     0.00000000
   28     0.00000000
   29     0.00000000
   30     0.00000000
   31     0.00000000
   32     0.00000000
   33     0.00000000
   34     0.00000000
   35     0.00000000
   36     0.00000000
   37     0.00000000
   38     0.00000000
   39     0.00000000
   40     0.00000000
   41     0.00000000
   42     0.00000000
   43     0.00000000
   44     0.00000000
   45     0.00000000
   46     0.00000000
   47     0.00000000
   48     0.00000000
   49     0.00000000
   50     0.00000000
   51     0.00000000
   52     0.00000000
   53     0.00000000
   54     0.00000000
   55     0.00000000
   56     0.00000000
   57     0.00000000
   58     0.00000000
 eigenvalues (real parts) in redeig:

              1
 
    1     0.13981155
    2     0.16355958
    3     0.21741256
    4     0.22203000
    5     0.22203000
    6     0.24540180
    7     0.25198476
    8     0.26043675
    9     0.27462757
   10     0.27699735
   11     0.28223818
   12     0.28633685
   13     0.28933888
   14     0.29243555
   15     0.30020113
   16     0.30113997
   17     0.30454039
   18     0.30937356
   19     0.31974445
   20     0.32326199
   21     0.33107933
   22     0.33643315
   23     0.34809161
   24     0.36657988
   25     0.37244537
   26     0.37517683
   27     0.39171170
   28     0.39872010
   29     0.40320400
   30     0.41211166
   31     0.41794469
   32     0.42476245
   33     0.44086693
   34     0.45277417
   35     0.48491592
   36     0.49545403
   37     0.52887527
   38     0.54785633
   39     0.56483207
   40     0.58253149
   41     0.61693233
   42     0.63597784
   43     0.64326073
   44     0.65392872
   45     0.66888761
   46     0.69553207
   47     0.72495671
   48     0.80033214
   49     0.83858619
   50     0.85208017
   51     0.91881122
   52     1.08801489
   53     1.40427619
   54     1.56153256
   55     1.90790429
   56     2.16853012
   57     2.26563246
   58     2.60221910
 ...adapted threshold to:  3.165910416141998E-002
      9       2         1.97     0.88E-01  ( 15)
 dabs(Rj-Ri):           1           4  8.180246802248037E-002
 dabs(Ij+Ii):           1           4  4.068326965754042E-003
 dabs(Rj-Ri):           2           4  5.804607565739386E-002
 dabs(Ij+Ii):           2           4  4.068326965754042E-003
 dabs(Rj-Ri):           3           4  4.192603920448540E-003
 dabs(Ij+Ii):           3           4  4.068326965754042E-003
 dabs(Rj-Ri):           5           4  0.000000000000000E+000
 dabs(Ij+Ii):           5           4  0.000000000000000E+000
 dabs(Rj-Ri):           6           4  2.379756229704263E-002
 dabs(Ij+Ii):           6           4  4.068326965754042E-003
 dabs(Rj-Ri):           7           4  3.038047674771410E-002
 dabs(Ij+Ii):           7           4  4.068326965754042E-003
 dabs(Rj-Ri):           8           4  3.882552890851626E-002
 dabs(Ij+Ii):           8           4  4.068326965754042E-003
 dabs(Rj-Ri):           9           4  5.301644372244935E-002
 dabs(Ij+Ii):           9           4  4.068326965754042E-003
 dabs(Rj-Ri):          10           4  5.538502534012490E-002
 dabs(Ij+Ii):          10           4  4.068326965754042E-003
 dabs(Rj-Ri):          11           4  5.942706709653883E-002
 dabs(Ij+Ii):          11           4  4.068326965754042E-003
 dabs(Rj-Ri):          12           4  6.152411011182579E-002
 dabs(Ij+Ii):          12           4  4.068326965754042E-003
 dabs(Rj-Ri):          13           4  6.592896279421173E-002
 dabs(Ij+Ii):          13           4  4.068326965754042E-003
 dabs(Rj-Ri):          14           4  6.774177295762973E-002
 dabs(Ij+Ii):          14           4  4.068326965754042E-003
 dabs(Rj-Ri):          15           4  7.083332601140369E-002
 dabs(Ij+Ii):          15           4  4.068326965754042E-003
 dabs(Rj-Ri):          16           4  7.950056061013017E-002
 dabs(Ij+Ii):          16           4  4.068326965754042E-003
 dabs(Rj-Ri):          17           4  8.290745769270719E-002
 dabs(Ij+Ii):          17           4  4.068326965754042E-003
 dabs(Rj-Ri):          18           4  8.675590141552725E-002
 dabs(Ij+Ii):          18           4  4.068326965754042E-003
 dabs(Rj-Ri):          19           4  9.489207878527628E-002
 dabs(Ij+Ii):          19           4  4.068326965754042E-003
 dabs(Rj-Ri):          20           4  9.831187154741344E-002
 dabs(Ij+Ii):          20           4  4.068326965754042E-003
 dabs(Rj-Ri):          21           4  0.109337082009403     
 dabs(Ij+Ii):          21           4  4.068326965754042E-003
 dabs(Rj-Ri):          22           4  0.113423836395662     
 dabs(Ij+Ii):          22           4  4.068326965754042E-003
 dabs(Rj-Ri):          23           4  0.125665763454833     
 dabs(Ij+Ii):          23           4  4.068326965754042E-003
 dabs(Rj-Ri):          24           4  0.138295969329092     
 dabs(Ij+Ii):          24           4  4.068326965754042E-003
 dabs(Rj-Ri):          25           4  0.146475273181294     
 dabs(Ij+Ii):          25           4  4.068326965754042E-003
 dabs(Rj-Ri):          26           4  0.153461025508005     
 dabs(Ij+Ii):          26           4  4.068326965754042E-003
 dabs(Rj-Ri):          27           4  0.158227352957732     
 dabs(Ij+Ii):          27           4  4.068326965754042E-003
 dabs(Rj-Ri):          28           4  0.168506751330113     
 dabs(Ij+Ii):          28           4  4.068326965754042E-003
 dabs(Rj-Ri):          29           4  0.177400048150214     
 dabs(Ij+Ii):          29           4  4.068326965754042E-003
 dabs(Rj-Ri):          30           4  0.181504684528521     
 dabs(Ij+Ii):          30           4  4.068326965754042E-003
 dabs(Rj-Ri):          31           4  0.192213213985725     
 dabs(Ij+Ii):          31           4  4.068326965754042E-003
 dabs(Rj-Ri):          32           4  0.195392303006865     
 dabs(Ij+Ii):          32           4  4.068326965754042E-003
 dabs(Rj-Ri):          33           4  0.197132188319120     
 dabs(Ij+Ii):          33           4  4.068326965754042E-003
 dabs(Rj-Ri):          34           4  0.230121887142937     
 dabs(Ij+Ii):          34           4  4.068326965754042E-003
 dabs(Rj-Ri):          35           4  0.239514074243172     
 dabs(Ij+Ii):          35           4  4.068326965754042E-003
 dabs(Rj-Ri):          36           4  0.263331748249307     
 dabs(Ij+Ii):          36           4  4.068326965754042E-003
 dabs(Rj-Ri):          37           4  0.277438878558788     
 dabs(Ij+Ii):          37           4  4.068326965754042E-003
 dabs(Rj-Ri):          38           4  0.322310750619192     
 dabs(Ij+Ii):          38           4  4.068326965754042E-003
 dabs(Rj-Ri):          39           4  0.329036006561155     
 dabs(Ij+Ii):          39           4  4.068326965754042E-003
 dabs(Rj-Ri):          40           4  0.354424710710761     
 dabs(Ij+Ii):          40           4  4.068326965754042E-003
 dabs(Rj-Ri):          41           4  0.369811317174305     
 dabs(Ij+Ii):          41           4  4.068326965754042E-003
 dabs(Rj-Ri):          42           4  0.390017923920094     
 dabs(Ij+Ii):          42           4  4.068326965754042E-003
 dabs(Rj-Ri):          43           4  0.409140310498371     
 dabs(Ij+Ii):          43           4  4.068326965754042E-003
 dabs(Rj-Ri):          44           4  0.422557374729237     
 dabs(Ij+Ii):          44           4  4.068326965754042E-003
 dabs(Rj-Ri):          45           4  0.429956890077669     
 dabs(Ij+Ii):          45           4  4.068326965754042E-003
 dabs(Rj-Ri):          46           4  0.438910007908550     
 dabs(Ij+Ii):          46           4  4.068326965754042E-003
 dabs(Rj-Ri):          47           4  0.483190787248873     
 dabs(Ij+Ii):          47           4  4.068326965754042E-003
 dabs(Rj-Ri):          48           4  0.502091124838397     
 dabs(Ij+Ii):          48           4  4.068326965754042E-003
 dabs(Rj-Ri):          49           4  0.548788706550885     
 dabs(Ij+Ii):          49           4  4.068326965754042E-003
 dabs(Rj-Ri):          50           4  0.610954907757091     
 dabs(Ij+Ii):          50           4  4.068326965754042E-003
 dabs(Rj-Ri):          51           4  0.633948666677037     
 dabs(Ij+Ii):          51           4  4.068326965754042E-003
 dabs(Rj-Ri):          52           4  0.747415309916322     
 dabs(Ij+Ii):          52           4  4.068326965754042E-003
 dabs(Rj-Ri):          53           4  0.774389134695063     
 dabs(Ij+Ii):          53           4  4.068326965754042E-003
 dabs(Rj-Ri):          54           4  0.999153700369743     
 dabs(Ij+Ii):          54           4  4.068326965754042E-003
 dabs(Rj-Ri):          55           4   1.20420823200790     
 dabs(Ij+Ii):          55           4  4.068326965754042E-003
 dabs(Rj-Ri):          56           4   1.37785473763223     
 dabs(Ij+Ii):          56           4  4.068326965754042E-003
 dabs(Rj-Ri):          57           4   1.71878036436719     
 dabs(Ij+Ii):          57           4  4.068326965754042E-003
 dabs(Rj-Ri):          58           4   2.06094162648905     
 dabs(Ij+Ii):          58           4  4.068326965754042E-003
 dabs(Rj-Ri):          59           4   2.45566384179341     
 dabs(Ij+Ii):          59           4  4.068326965754042E-003
 dabs(Rj-Ri):          60           4   2.53616105363281     
 dabs(Ij+Ii):          60           4  4.068326965754042E-003
 overlap matrix for complex pair:

              1             2
 
    1     0.18753811   -0.14355617
    2    -0.14355617    0.50318789
 real eigenvalues of metric:

              1
 
    1     0.13201570
    2     0.55871030
 eigenvectors of metric:

              1             2
 
    1     0.93267243   -0.36072445
    2     0.36072445    0.93267243
 inverse square root of overlap matrix:

              1             2
 
    1     2.56820123    0.47585691
    2     0.47585691    1.52189214
 recalculated overlap matrix for complex pair:

              1             2
 
    1     1.00000000    0.00000000
    2     0.00000000    1.00000000
 dabs(Rj-Ri):           1           5  8.180246802248037E-002
 dabs(Ij+Ii):           1           5  4.068326965754042E-003
 dabs(Rj-Ri):           2           5  5.804607565739386E-002
 dabs(Ij+Ii):           2           5  4.068326965754042E-003
 dabs(Rj-Ri):           3           5  4.192603920448540E-003
 dabs(Ij+Ii):           3           5  4.068326965754042E-003
 dabs(Rj-Ri):           4           5  0.000000000000000E+000
 dabs(Ij+Ii):           4           5  0.000000000000000E+000
 dabs(Rj-Ri):           6           5  2.379756229704263E-002
 dabs(Ij+Ii):           6           5  4.068326965754042E-003
 dabs(Rj-Ri):           7           5  3.038047674771410E-002
 dabs(Ij+Ii):           7           5  4.068326965754042E-003
 dabs(Rj-Ri):           8           5  3.882552890851626E-002
 dabs(Ij+Ii):           8           5  4.068326965754042E-003
 dabs(Rj-Ri):           9           5  5.301644372244935E-002
 dabs(Ij+Ii):           9           5  4.068326965754042E-003
 dabs(Rj-Ri):          10           5  5.538502534012490E-002
 dabs(Ij+Ii):          10           5  4.068326965754042E-003
 dabs(Rj-Ri):          11           5  5.942706709653883E-002
 dabs(Ij+Ii):          11           5  4.068326965754042E-003
 dabs(Rj-Ri):          12           5  6.152411011182579E-002
 dabs(Ij+Ii):          12           5  4.068326965754042E-003
 dabs(Rj-Ri):          13           5  6.592896279421173E-002
 dabs(Ij+Ii):          13           5  4.068326965754042E-003
 dabs(Rj-Ri):          14           5  6.774177295762973E-002
 dabs(Ij+Ii):          14           5  4.068326965754042E-003
 dabs(Rj-Ri):          15           5  7.083332601140369E-002
 dabs(Ij+Ii):          15           5  4.068326965754042E-003
 dabs(Rj-Ri):          16           5  7.950056061013017E-002
 dabs(Ij+Ii):          16           5  4.068326965754042E-003
 dabs(Rj-Ri):          17           5  8.290745769270719E-002
 dabs(Ij+Ii):          17           5  4.068326965754042E-003
 dabs(Rj-Ri):          18           5  8.675590141552725E-002
 dabs(Ij+Ii):          18           5  4.068326965754042E-003
 dabs(Rj-Ri):          19           5  9.489207878527628E-002
 dabs(Ij+Ii):          19           5  4.068326965754042E-003
 dabs(Rj-Ri):          20           5  9.831187154741344E-002
 dabs(Ij+Ii):          20           5  4.068326965754042E-003
 dabs(Rj-Ri):          21           5  0.109337082009403     
 dabs(Ij+Ii):          21           5  4.068326965754042E-003
 dabs(Rj-Ri):          22           5  0.113423836395662     
 dabs(Ij+Ii):          22           5  4.068326965754042E-003
 dabs(Rj-Ri):          23           5  0.125665763454833     
 dabs(Ij+Ii):          23           5  4.068326965754042E-003
 dabs(Rj-Ri):          24           5  0.138295969329092     
 dabs(Ij+Ii):          24           5  4.068326965754042E-003
 dabs(Rj-Ri):          25           5  0.146475273181294     
 dabs(Ij+Ii):          25           5  4.068326965754042E-003
 dabs(Rj-Ri):          26           5  0.153461025508005     
 dabs(Ij+Ii):          26           5  4.068326965754042E-003
 dabs(Rj-Ri):          27           5  0.158227352957732     
 dabs(Ij+Ii):          27           5  4.068326965754042E-003
 dabs(Rj-Ri):          28           5  0.168506751330113     
 dabs(Ij+Ii):          28           5  4.068326965754042E-003
 dabs(Rj-Ri):          29           5  0.177400048150214     
 dabs(Ij+Ii):          29           5  4.068326965754042E-003
 dabs(Rj-Ri):          30           5  0.181504684528521     
 dabs(Ij+Ii):          30           5  4.068326965754042E-003
 dabs(Rj-Ri):          31           5  0.192213213985725     
 dabs(Ij+Ii):          31           5  4.068326965754042E-003
 dabs(Rj-Ri):          32           5  0.195392303006865     
 dabs(Ij+Ii):          32           5  4.068326965754042E-003
 dabs(Rj-Ri):          33           5  0.197132188319120     
 dabs(Ij+Ii):          33           5  4.068326965754042E-003
 dabs(Rj-Ri):          34           5  0.230121887142937     
 dabs(Ij+Ii):          34           5  4.068326965754042E-003
 dabs(Rj-Ri):          35           5  0.239514074243172     
 dabs(Ij+Ii):          35           5  4.068326965754042E-003
 dabs(Rj-Ri):          36           5  0.263331748249307     
 dabs(Ij+Ii):          36           5  4.068326965754042E-003
 dabs(Rj-Ri):          37           5  0.277438878558788     
 dabs(Ij+Ii):          37           5  4.068326965754042E-003
 dabs(Rj-Ri):          38           5  0.322310750619192     
 dabs(Ij+Ii):          38           5  4.068326965754042E-003
 dabs(Rj-Ri):          39           5  0.329036006561155     
 dabs(Ij+Ii):          39           5  4.068326965754042E-003
 dabs(Rj-Ri):          40           5  0.354424710710761     
 dabs(Ij+Ii):          40           5  4.068326965754042E-003
 dabs(Rj-Ri):          41           5  0.369811317174305     
 dabs(Ij+Ii):          41           5  4.068326965754042E-003
 dabs(Rj-Ri):          42           5  0.390017923920094     
 dabs(Ij+Ii):          42           5  4.068326965754042E-003
 dabs(Rj-Ri):          43           5  0.409140310498371     
 dabs(Ij+Ii):          43           5  4.068326965754042E-003
 dabs(Rj-Ri):          44           5  0.422557374729237     
 dabs(Ij+Ii):          44           5  4.068326965754042E-003
 dabs(Rj-Ri):          45           5  0.429956890077669     
 dabs(Ij+Ii):          45           5  4.068326965754042E-003
 dabs(Rj-Ri):          46           5  0.438910007908550     
 dabs(Ij+Ii):          46           5  4.068326965754042E-003
 dabs(Rj-Ri):          47           5  0.483190787248873     
 dabs(Ij+Ii):          47           5  4.068326965754042E-003
 dabs(Rj-Ri):          48           5  0.502091124838397     
 dabs(Ij+Ii):          48           5  4.068326965754042E-003
 dabs(Rj-Ri):          49           5  0.548788706550885     
 dabs(Ij+Ii):          49           5  4.068326965754042E-003
 dabs(Rj-Ri):          50           5  0.610954907757091     
 dabs(Ij+Ii):          50           5  4.068326965754042E-003
 dabs(Rj-Ri):          51           5  0.633948666677037     
 dabs(Ij+Ii):          51           5  4.068326965754042E-003
 dabs(Rj-Ri):          52           5  0.747415309916322     
 dabs(Ij+Ii):          52           5  4.068326965754042E-003
 dabs(Rj-Ri):          53           5  0.774389134695063     
 dabs(Ij+Ii):          53           5  4.068326965754042E-003
 dabs(Rj-Ri):          54           5  0.999153700369743     
 dabs(Ij+Ii):          54           5  4.068326965754042E-003
 dabs(Rj-Ri):          55           5   1.20420823200790     
 dabs(Ij+Ii):          55           5  4.068326965754042E-003
 dabs(Rj-Ri):          56           5   1.37785473763223     
 dabs(Ij+Ii):          56           5  4.068326965754042E-003
 dabs(Rj-Ri):          57           5   1.71878036436719     
 dabs(Ij+Ii):          57           5  4.068326965754042E-003
 dabs(Rj-Ri):          58           5   2.06094162648905     
 dabs(Ij+Ii):          58           5  4.068326965754042E-003
 dabs(Rj-Ri):          59           5   2.45566384179341     
 dabs(Ij+Ii):          59           5  4.068326965754042E-003
 dabs(Rj-Ri):          60           5   2.53616105363281     
 dabs(Ij+Ii):          60           5  4.068326965754042E-003
 overlap matrix for complex pair:

              1             2
 
    1     1.00000000    0.00000000
    2     0.00000000    1.00000000
 real eigenvalues of metric:

              1
 
    1     1.00000000
    2     1.00000000
 eigenvectors of metric:

              1             2
 
    1     0.87484658    0.48440010
    2    -0.48440010    0.87484658
 inverse square root of overlap matrix:

              1             2
 
    1     1.00000000   -0.00000000
    2    -0.00000000    1.00000000
 recalculated overlap matrix for complex pair:

              1             2
 
    1     1.00000000    0.00000000
    2    -0.00000000    1.00000000
 warning> found low lying complex root...
 eigenvalues (imaginary parts) in redeig:

              1
 
    1     0.00000000
    2     0.00000000
    3     0.00000000
    4    -0.00406833
    5     0.00406833
    6     0.00000000
    7     0.00000000
    8     0.00000000
    9     0.00000000
   10     0.00000000
   11     0.00000000
   12     0.00000000
   13     0.00000000
   14     0.00000000
   15     0.00000000
   16     0.00000000
   17     0.00000000
   18     0.00000000
   19     0.00000000
   20     0.00000000
   21     0.00000000
   22     0.00000000
   23     0.00000000
   24     0.00000000
   25     0.00000000
   26     0.00000000
   27     0.00000000
   28     0.00000000
   29     0.00000000
   30     0.00000000
   31     0.00000000
   32     0.00000000
   33     0.00000000
   34     0.00000000
   35     0.00000000
   36     0.00000000
   37     0.00000000
   38     0.00000000
   39     0.00000000
   40     0.00000000
   41     0.00000000
   42     0.00000000
   43     0.00000000
   44     0.00000000
   45     0.00000000
   46     0.00000000
   47     0.00000000
   48     0.00000000
   49     0.00000000
   50     0.00000000
   51     0.00000000
   52     0.00000000
   53     0.00000000
   54     0.00000000
   55     0.00000000
   56     0.00000000
   57     0.00000000
   58     0.00000000
   59     0.00000000
   60     0.00000000
 eigenvalues (real parts) in redeig:

              1
 
[...]
     | xangmom   |      0.06065676 |     -0.06065676 |       0.00367924    |
     | yangmom   |      0.00459788 |     -0.00459788 |       0.00002114    |
     | zangmom   |      0.00000000 |      0.00000000 |       0.00000000    |
     +-----------+-----------------+-----------------+---------------------+
 
       oscillator strength (length gauge)   :      0.00005720
       oscillator strength (velocity gauge) :      0.00005145
       oscillator strength (mixed gauge)    :      0.00005425
 
       rotator strength (length gauge)      :      0.00000000 a.u.
       Rotator strength (length gauge)      :      0.00000000 10^(-40)*erg*cm^3
       rotator strength (velocity gauge)    :      0.00000000 a.u.
       Rotator strength (velocity gauge)    :      0.00000000 10^(-40)*erg*cm^3
 


  +=========================================================================+
  |  Transition                                             model: ADC(2)   |
  |    number, symmetry, multiplicity:    6 a"   1                          |
  |    frequency :   0.2456695625 a.u.     6.68501 e.V.     53918.2 rcm     |
  +=========================================================================+

     +-----------+-----------------+-----------------+---------------------+
     | operator  |   left moment   |  right moment   | transition strength |
     +-----------+-----------------+-----------------+---------------------+
     | xdiplen   |      0.00000000 |      0.00000000 |       0.00000000    |
     | ydiplen   |      0.00000000 |      0.00000000 |       0.00000000    |
     | zdiplen   |     -0.10440810 |     -0.10440810 |       0.01090105    |
     | xdipvel   |      0.00000000 |      0.00000000 |       0.00000000    |
     | ydipvel   |      0.00000000 |      0.00000000 |       0.00000000    |
     | zdipvel   |     -0.02712072 |      0.02712072 |       0.00073553    |
     | xangmom   |     -0.26059789 |      0.26059789 |       0.06791126    |
     | yangmom   |      0.38275104 |     -0.38275104 |       0.14649836    |
     | zangmom   |      0.00000000 |      0.00000000 |       0.00000000    |
     +-----------+-----------------+-----------------+---------------------+
 
       oscillator strength (length gauge)   :      0.00178537
       oscillator strength (velocity gauge) :      0.00199600
       oscillator strength (mixed gauge)    :      0.00188775
 
       rotator strength (length gauge)      :      0.00000000 a.u.
       Rotator strength (length gauge)      :      0.00000000 10^(-40)*erg*cm^3
       rotator strength (velocity gauge)    :      0.00000000 a.u.
       Rotator strength (velocity gauge)    :      0.00000000 10^(-40)*erg*cm^3
 


  +=========================================================================+
  |  Transition                                             model: ADC(2)   |
  |    number, symmetry, multiplicity:    7 a"   1                          |
  |    frequency :   0.2521487316 a.u.     6.86132 e.V.     55340.2 rcm     |
  +=========================================================================+

     +-----------+-----------------+-----------------+---------------------+
     | operator  |   left moment   |  right moment   | transition strength |
     +-----------+-----------------+-----------------+---------------------+
     | xdiplen   |      0.00000000 |      0.00000000 |       0.00000000    |
     | ydiplen   |      0.00000000 |      0.00000000 |       0.00000000    |
     | zdiplen   |     -0.20997784 |     -0.20997784 |       0.04409070    |
     | xdipvel   |      0.00000000 |      0.00000000 |       0.00000000    |
     | ydipvel   |      0.00000000 |      0.00000000 |       0.00000000    |
     | zdipvel   |     -0.06015152 |      0.06015152 |       0.00361820    |
     | xangmom   |     -0.19610079 |      0.19610079 |       0.03845552    |
     | yangmom   |      0.39998455 |     -0.39998455 |       0.15998764    |
     | zangmom   |      0.00000000 |      0.00000000 |       0.00000000    |
     +-----------+-----------------+-----------------+---------------------+
 
       oscillator strength (length gauge)   :      0.00741161
       oscillator strength (velocity gauge) :      0.00956632
       oscillator strength (mixed gauge)    :      0.00842032
 
       rotator strength (length gauge)      :      0.00000000 a.u.
       Rotator strength (length gauge)      :      0.00000000 10^(-40)*erg*cm^3
       rotator strength (velocity gauge)    :      0.00000000 a.u.
       Rotator strength (velocity gauge)    :      0.00000000 10^(-40)*erg*cm^3
 


  +=========================================================================+
  |  Transition                                             model: ADC(2)   |
  |    number, symmetry, multiplicity:    8 a"   1                          |
  |    frequency :   0.2612786729 a.u.     7.10975 e.V.     57344.0 rcm     |
  +=========================================================================+

     +-----------+-----------------+-----------------+---------------------+
     | operator  |   left moment   |  right moment   | transition strength |
     +-----------+-----------------+-----------------+---------------------+
     | xdiplen   |      0.00000000 |      0.00000000 |       0.00000000    |
     | ydiplen   |      0.00000000 |      0.00000000 |       0.00000000    |
     | zdiplen   |      0.08918110 |      0.08918110 |       0.00795327    |
     | xdipvel   |      0.00000000 |      0.00000000 |       0.00000000    |
     | ydipvel   |      0.00000000 |      0.00000000 |       0.00000000    |
     | zdipvel   |      0.01948740 |     -0.01948740 |       0.00037976    |
     | xangmom   |     -0.14266590 |      0.14266590 |       0.02035356    |
     | yangmom   |      0.00766506 |     -0.00766506 |       0.00005875    |
     | zangmom   |      0.00000000 |      0.00000000 |       0.00000000    |
     +-----------+-----------------+-----------------+---------------------+
 
       oscillator strength (length gauge)   :      0.00138535
       oscillator strength (velocity gauge) :      0.00096897
       oscillator strength (mixed gauge)    :      0.00115861
 
       rotator strength (length gauge)      :      0.00000000 a.u.
       Rotator strength (length gauge)      :      0.00000000 10^(-40)*erg*cm^3
       rotator strength (velocity gauge)    :      0.00000000 a.u.
       Rotator strength (velocity gauge)    :      0.00000000 10^(-40)*erg*cm^3
 


  +=========================================================================+
  |  Transition                                             model: ADC(2)   |
  |    number, symmetry, multiplicity:    9 a"   1                          |
  |    frequency :   0.2645542489 a.u.     7.19889 e.V.     58062.9 rcm     |
  +=========================================================================+

     +-----------+-----------------+-----------------+---------------------+
     | operator  |   left moment   |  right moment   | transition strength |
     +-----------+-----------------+-----------------+---------------------+
     | xdiplen   |      0.00000000 |      0.00000000 |       0.00000000    |
     | ydiplen   |      0.00000000 |      0.00000000 |       0.00000000    |
     | zdiplen   |      0.00211676 |      0.00211676 |       0.00000448    |
     | xdipvel   |      0.00000000 |      0.00000000 |       0.00000000    |
     | ydipvel   |      0.00000000 |      0.00000000 |       0.00000000    |
     | zdipvel   |      0.00127649 |     -0.00127649 |       0.00000163    |
     | xangmom   |      0.16741371 |     -0.16741371 |       0.02802735    |
     | yangmom   |      0.06630611 |     -0.06630611 |       0.00439650    |
     | zangmom   |      0.00000000 |      0.00000000 |       0.00000000    |
     +-----------+-----------------+-----------------+---------------------+
 
       oscillator strength (length gauge)   :      0.00000079
       oscillator strength (velocity gauge) :      0.00000411
       oscillator strength (mixed gauge)    :      0.00000180
 
       rotator strength (length gauge)      :      0.00000000 a.u.
       Rotator strength (length gauge)      :      0.00000000 10^(-40)*erg*cm^3
       rotator strength (velocity gauge)    :      0.00000000 a.u.
       Rotator strength (velocity gauge)    :      0.00000000 10^(-40)*erg*cm^3
 


  +=========================================================================+
  |  Transition                                             model: ADC(2)   |
  |    number, symmetry, multiplicity:   10 a"   1                          |
  |    frequency :   0.2751137655 a.u.     7.48623 e.V.     60380.5 rcm     |
  +=========================================================================+

     +-----------+-----------------+-----------------+---------------------+
     | operator  |   left moment   |  right moment   | transition strength |
     +-----------+-----------------+-----------------+---------------------+
     | xdiplen   |      0.00000000 |      0.00000000 |       0.00000000    |
     | ydiplen   |      0.00000000 |      0.00000000 |       0.00000000    |
     | zdiplen   |      0.09206411 |      0.09206411 |       0.00847580    |
     | xdipvel   |      0.00000000 |      0.00000000 |       0.00000000    |
     | ydipvel   |      0.00000000 |      0.00000000 |       0.00000000    |
     | zdipvel   |      0.02169770 |     -0.02169770 |       0.00047079    |
     | xangmom   |      0.23020645 |     -0.23020645 |       0.05299501    |
     | yangmom   |     -0.13160932 |      0.13160932 |       0.01732101    |
     | zangmom   |      0.00000000 |      0.00000000 |       0.00000000    |
     +-----------+-----------------+-----------------+---------------------+
 
       oscillator strength (length gauge)   :      0.00155454
       oscillator strength (velocity gauge) :      0.00114084
       oscillator strength (mixed gauge)    :      0.00133172
 
       rotator strength (length gauge)      :      0.00000000 a.u.
       Rotator strength (length gauge)      :      0.00000000 10^(-40)*erg*cm^3
       rotator strength (velocity gauge)    :      0.00000000 a.u.
       Rotator strength (velocity gauge)    :      0.00000000 10^(-40)*erg*cm^3
 


  +=========================================================================+
  |  Transition                                             model: ADC(2)   |
  |    number, symmetry, multiplicity:   11 a"   1                          |
  |    frequency :   0.2771239326 a.u.     7.54093 e.V.     60821.7 rcm     |
  +=========================================================================+

     +-----------+-----------------+-----------------+---------------------+
     | operator  |   left moment   |  right moment   | transition strength |
     +-----------+-----------------+-----------------+---------------------+
     | xdiplen   |      0.00000000 |      0.00000000 |       0.00000000    |
     | ydiplen   |      0.00000000 |      0.00000000 |       0.00000000    |
     | zdiplen   |      0.12536112 |      0.12536112 |       0.01571541    |
     | xdipvel   |      0.00000000 |      0.00000000 |       0.00000000    |
     | ydipvel   |      0.00000000 |      0.00000000 |       0.00000000    |
     | zdipvel   |      0.03323428 |     -0.03323428 |       0.00110452    |
     | xangmom   |      0.44518514 |     -0.44518514 |       0.19818981    |
     | yangmom   |      0.06046044 |     -0.06046044 |       0.00365546    |
     | zangmom   |      0.00000000 |      0.00000000 |       0.00000000    |
     +-----------+-----------------+-----------------+---------------------+
 
       oscillator strength (length gauge)   :      0.00290341
       oscillator strength (velocity gauge) :      0.00265710
       oscillator strength (mixed gauge)    :      0.00277752
 
       rotator strength (length gauge)      :      0.00000000 a.u.
       Rotator strength (length gauge)      :      0.00000000 10^(-40)*erg*cm^3
       rotator strength (velocity gauge)    :      0.00000000 a.u.
       Rotator strength (velocity gauge)    :      0.00000000 10^(-40)*erg*cm^3
 


  +=========================================================================+
  |  Transition                                             model: ADC(2)   |
  |    number, symmetry, multiplicity:   12 a"   1                          |
  |    frequency :   0.2795667194 a.u.     7.60740 e.V.     61357.8 rcm     |
  +=========================================================================+

     +-----------+-----------------+-----------------+---------------------+
     | operator  |   left moment   |  right moment   | transition strength |
     +-----------+-----------------+-----------------+---------------------+
     | xdiplen   |      0.00000000 |      0.00000000 |       0.00000000    |
     | ydiplen   |      0.00000000 |      0.00000000 |       0.00000000    |
     | zdiplen   |     -0.02098119 |     -0.02098119 |       0.00044021    |
     | xdipvel   |      0.00000000 |      0.00000000 |       0.00000000    |
     | ydipvel   |      0.00000000 |      0.00000000 |       0.00000000    |
     | zdipvel   |     -0.01127933 |      0.01127933 |       0.00012722    |
     | xangmom   |      0.05474151 |     -0.05474151 |       0.00299663    |
     | yangmom   |     -0.64992991 |      0.64992991 |       0.42240889    |
     | zangmom   |      0.00000000 |      0.00000000 |       0.00000000    |
     +-----------+-----------------+-----------------+---------------------+
 
       oscillator strength (length gauge)   :      0.00008205
       oscillator strength (velocity gauge) :      0.00030338
       oscillator strength (mixed gauge)    :      0.00015777
 
       rotator strength (length gauge)      :      0.00000000 a.u.
       Rotator strength (length gauge)      :      0.00000000 10^(-40)*erg*cm^3
       rotator strength (velocity gauge)    :      0.00000000 a.u.
       Rotator strength (velocity gauge)    :      0.00000000 10^(-40)*erg*cm^3
 


  +=========================================================================+
  |  Transition                                             model: ADC(2)   |
  |    number, symmetry, multiplicity:   13 a"   1                          |
  |    frequency :   0.2825772399 a.u.     7.68932 e.V.     62018.5 rcm     |
  +=========================================================================+

     +-----------+-----------------+-----------------+---------------------+
     | operator  |   left moment   |  right moment   | transition strength |
     +-----------+-----------------+-----------------+---------------------+
     | xdiplen   |      0.00000000 |      0.00000000 |       0.00000000    |
     | ydiplen   |      0.00000000 |      0.00000000 |       0.00000000    |
     | zdiplen   |     -0.04443916 |     -0.04443916 |       0.00197484    |
     | xdipvel   |      0.00000000 |      0.00000000 |       0.00000000    |
     | ydipvel   |      0.00000000 |      0.00000000 |       0.00000000    |
     | zdipvel   |     -0.01242210 |      0.01242210 |       0.00015431    |
     | xangmom   |      0.32508822 |     -0.32508822 |       0.10568235    |
     | yangmom   |     -0.44133244 |      0.44133244 |       0.19477432    |
     | zangmom   |      0.00000000 |      0.00000000 |       0.00000000    |
     +-----------+-----------------+-----------------+---------------------+
 
       oscillator strength (length gauge)   :      0.00037203
       oscillator strength (velocity gauge) :      0.00036405
       oscillator strength (mixed gauge)    :      0.00036802
 
       rotator strength (length gauge)      :      0.00000000 a.u.
       Rotator strength (length gauge)      :      0.00000000 10^(-40)*erg*cm^3
       rotator strength (velocity gauge)    :      0.00000000 a.u.
       Rotator strength (velocity gauge)    :      0.00000000 10^(-40)*erg*cm^3
 


  +=========================================================================+
  |  Transition                                             model: ADC(2)   |
  |    number, symmetry, multiplicity:   14 a"   1                          |
  |    frequency :   0.2879828425 a.u.     7.83641 e.V.     63204.9 rcm     |
  +=========================================================================+

     +-----------+-----------------+-----------------+---------------------+
     | operator  |   left moment   |  right moment   | transition strength |
     +-----------+-----------------+-----------------+---------------------+
     | xdiplen   |      0.00000000 |      0.00000000 |       0.00000000    |
     | ydiplen   |      0.00000000 |      0.00000000 |       0.00000000    |
     | zdiplen   |      0.08918454 |      0.08918454 |       0.00795388    |
     | xdipvel   |      0.00000000 |      0.00000000 |       0.00000000    |
     | ydipvel   |      0.00000000 |      0.00000000 |       0.00000000    |
     | zdipvel   |      0.02772784 |     -0.02772784 |       0.00076883    |
     | xangmom   |     -0.68053589 |      0.68053589 |       0.46312910    |
     | yangmom   |     -0.66182274 |      0.66182274 |       0.43800934    |
     | zangmom   |      0.00000000 |      0.00000000 |       0.00000000    |
     +-----------+-----------------+-----------------+---------------------+
 
       oscillator strength (length gauge)   :      0.00152705
       oscillator strength (velocity gauge) :      0.00177981
       oscillator strength (mixed gauge)    :      0.00164860
 
       rotator strength (length gauge)      :      0.00000000 a.u.
       Rotator strength (length gauge)      :      0.00000000 10^(-40)*erg*cm^3
       rotator strength (velocity gauge)    :      0.00000000 a.u.
       Rotator strength (velocity gauge)    :      0.00000000 10^(-40)*erg*cm^3
 


  +=========================================================================+
  |  Transition                                             model: ADC(2)   |
  |    number, symmetry, multiplicity:   15 a"   1                          |
  |    frequency :   0.2894651445 a.u.     7.87675 e.V.     63530.3 rcm     |
  +=========================================================================+

     +-----------+-----------------+-----------------+---------------------+
     | operator  |   left moment   |  right moment   | transition strength |
     +-----------+-----------------+-----------------+---------------------+
     | xdiplen   |      0.00000000 |      0.00000000 |       0.00000000    |
     | ydiplen   |      0.00000000 |      0.00000000 |       0.00000000    |
     | zdiplen   |      0.12835614 |      0.12835614 |       0.01647530    |
     | xdipvel   |      0.00000000 |      0.00000000 |       0.00000000    |
     | ydipvel   |      0.00000000 |      0.00000000 |       0.00000000    |
     | zdipvel   |      0.03905965 |     -0.03905965 |       0.00152566    |
     | xangmom   |     -0.20868290 |      0.20868290 |       0.04354855    |
     | yangmom   |     -0.29480737 |      0.29480737 |       0.08691138    |
     | zangmom   |      0.00000000 |      0.00000000 |       0.00000000    |
     +-----------+-----------------+-----------------+---------------------+
 
       oscillator strength (length gauge)   :      0.00317935
       oscillator strength (velocity gauge) :      0.00351374
       oscillator strength (mixed gauge)    :      0.00334236
 
       rotator strength (length gauge)      :      0.00000000 a.u.
       Rotator strength (length gauge)      :      0.00000000 10^(-40)*erg*cm^3
       rotator strength (velocity gauge)    :      0.00000000 a.u.
       Rotator strength (velocity gauge)    :      0.00000000 10^(-40)*erg*cm^3
 
 Exporting transition densities


    ------------------------------------------------------------------------
         total  cpu-time :  9 hours  2 minutes and 43 seconds
         total wall-time : 13 hours 24 minutes and 18 seconds
    ------------------------------------------------------------------------


   ****  ricc2 : all done  ****


    2023-01-25 00:14:14.944 

