 operating system is UNIX !
 hostname is         dlt14.abaxnet

 dscf (dlt14.abaxnet) : TURBOMOLE V6.6( 19103 ) 21 May 2014 at 15:45:05
 Copyright (C) 2014 TURBOMOLE GmbH, Karlsruhe


    2023-01-24 10:15:53.236 



                             d s c f - program

                   idea & directorship : reinhart ahlrichs
                   program development : marco haeser
                                         michael baer
                           dft version : oliver treutler


                          quantum chemistry group
                          universitaet  karlsruhe
                                  germany




                          References             
                                                 
          TURBOMOLE:                             
              R. Ahlrichs, M. Baer, M. Haeser, H. Horn, and
              C. Koelmel
              Electronic structure calculations on workstation
              computers: the program system TURBOMOLE
              Chem. Phys. Lett. 162: 165 (1989)
          Density Functional:                              
              O. Treutler and R. Ahlrichs                      
              Efficient Molecular Numerical Integration Schemes
              J. Chem. Phys. 102: 346 (1995)                   
          Parallel Version:                                
              Performance of parallel TURBOMOLE for Density    
              Functional Calculations                          
              M. v. Arnim and R. Ahlrichs                      
              J. Comp. Chem. 19: 1746 (1998)                   
                                         




              +--------------------------------------------------+
              | Atomic coordinate, charge and isotop information |
              +--------------------------------------------------+

                    atomic coordinates            atom    charge  isotop
         -0.89988280   -2.24971952    0.00000000    c      6.000     0
         -2.79625837   -0.47210123    0.00000000    c      6.000     0
         -2.25017524    2.09585118    0.00000000    c      6.000     0
          0.21546389    2.88772655    0.00000000    c      6.000     0
          2.20730616    1.13789584    0.00000000    c      6.000     0
          1.59685103   -1.45959641    0.00000000    c      6.000     0
         -1.36545542   -4.23569014    0.00000000    h      1.000     0
         -3.78717805    3.43751061    0.00000000    h      1.000     0
          0.64610292    4.88630796    0.00000000    h      1.000     0
         -5.42233685   -1.30112836    0.00000000    n      7.000     0
         -7.04874756    0.31841335    0.00000000    o      8.000     0
         -5.83182168   -3.55836992    0.00000000    o      8.000     0
          4.64086306    1.90759097    0.00000000    n      7.000     0
          5.07218266    3.75245289    0.00000000    h      1.000     0
          6.06660343    0.65207073    0.00000000    h      1.000     0
          3.61600411   -3.24310559    0.00000000    c      6.000     0
          5.34047874   -4.55610891    0.00000000    n      7.000     0
 
       center of nuclear mass  :   -0.70645685   -0.70033035    0.00000000
       center of nuclear charge:   -0.64718347   -0.62967642    0.00000000

   *************************************************************************
   ADC(2) - opt by CAM-B3LYP gaussian                                       
   *************************************************************************



              +--------------------------------------------------+
              |               basis set information              |
              +--------------------------------------------------+

              we will work with the 1s 3p 5d 7f 9g ... basis set
              ...i.e. with spherical basis functions...

   type   atoms  prim   cont   basis
   ---------------------------------------------------------------------------
    c        7     52     37   def2-TZVPD   [6s3p3d1f|12s6p3d1f]
    h        5     11      9   def2-TZVPD   [3s2p|5s2p]
    n        3     52     37   def2-TZVPD   [6s3p3d1f|12s6p3d1f]
    o        2     55     40   def2-TZVPD   [6s4p3d1f|12s7p3d1f]
   ---------------------------------------------------------------------------
   total:   17    685    495
   ---------------------------------------------------------------------------

   total number of primitive shells          :   74
   total number of contracted shells         :  183
   total number of cartesian basis functions :  567
   total number of SCF-basis functions       :  495


 integral neglect threshold       :  0.59E-11
 integral storage threshold THIZE :  0.10E-04
 integral storage threshold THIME :         5


 DENSITY CONVERGENCE CHECK SWITCHED ON !
 SCF CONVERGENCE IF RMS(delta[D]) <     0.1000000000E-07


 symmetry group of the molecule :   cs

 the group has the following generators :
   c1(z)
   mirror plane sigma(xy)

    2 symmetry operations found

 there are 2 real representations :   a'   a"  

 maximum number of shells which are related by symmetry :  1


    mo occupation :
   irrep   mo's   occupied
    a'     339       35
    a"     156        7
 
 number of basis functions   :          495
 number of occupied orbitals :           42
 

          ------------------------
          nuclear repulsion energy  :   635.432230921    
          ------------------------

 
          -----------------
          -S,T+V- integrals
          -----------------

 1e-integrals will be neglected if expon. factor < 0.589411E-12
 
   Difference densities algorithm switched on.
   The maximal number of linear combinations of
   difference densities is          20 .

 automatic virtual orbital shift switched on 
      shift if e(lumo)-e(homo) < 0.10000000    


 DIIS switched on: error vector is FDS-SDF
 Max. Iterations for DIIS is     :   5
 DIIS matrix (see manual) 
    Scaling factor of diagonals  :  1.200
    threshold for scaling factor :  0.000

 scf convergence criterion : increment of total energy < .1000000D-06
                  and increment of one-electron energy < .1000000D-03


 <geterg> : there is no data group $energy 

  MOs are in ASCII format !


 reading orbital data $scfmo  from file mos . 

 orbital characterization : expanded
 
 mo provided and orthogonalized by Cholesky decomposition

 DSCF restart information will be dumped onto file mos

 
                                              current damping :  0.300
 ITERATION  ENERGY          1e-ENERGY        2e-ENERGY     RMS[dD(SAO)]   TOL
   1  -578.42566649289    -2032.5118838     818.65398642    0.000D+00 0.588D-11
          max. resid. norm for Fia-block=  4.005D-01 for orbital     24a'        
          max. resid. fock norm         =  1.117D+01 for orbital    176a'        
          Delta Eig. =   934.1698560891 eV 
 
                                              current damping :  0.250
 ITERATION  ENERGY          1e-ENERGY        2e-ENERGY     RMS[dD(SAO)]   TOL
   2  -580.89504902863    -2049.6963384     833.36905846    0.910D-01 0.585D-11
          Norm of current diis error:  2.8267    
          max. resid. norm for Fia-block=  1.502D-01 for orbital     13a'        
          max. resid. fock norm         =  3.702D-01 for orbital    297a'        
          Delta Eig. =   212.9356861455 eV 
 
                                              current damping :  0.100
 ITERATION  ENERGY          1e-ENERGY        2e-ENERGY     RMS[dD(SAO)]   TOL
   3  -581.10871126118    -2050.3511207     833.81017849    0.149D-01 0.369D-11
          Norm of current diis error:  1.1467    
          max. resid. norm for Fia-block=  5.121D-02 for orbital     27a'        
          max. resid. fock norm         =  6.016D-02 for orbital     27a'        
          Delta Eig. =    52.2797209993 eV 
 
                                              current damping :  0.100
 ITERATION  ENERGY          1e-ENERGY        2e-ENERGY     RMS[dD(SAO)]   TOL
   4  -581.16207407147    -2051.0763167     834.48201167    0.692D-02 0.282D-11
          Norm of current diis error: 0.32640    
          max. resid. norm for Fia-block=  2.109D-02 for orbital     16a'        
          max. resid. fock norm         =  2.868D-02 for orbital     16a'        
          Delta Eig. =     4.0905636483 eV 
 
                                              current damping :  0.100
 ITERATION  ENERGY          1e-ENERGY        2e-ENERGY     RMS[dD(SAO)]   TOL
   5  -581.16728429773    -2051.1930360     834.59352077    0.179D-02 0.261D-11
          Norm of current diis error: 0.94966E-01
          max. resid. norm for Fia-block=  6.423D-03 for orbital     35a'        
          max. resid. fock norm         =  9.146D-03 for orbital    331a'        
 mo-orthogonalization: Cholesky decomposition
          Delta Eig. =     0.5905792685 eV 
 
                                              current damping :  0.150
 ITERATION  ENERGY          1e-ENERGY        2e-ENERGY     RMS[dD(SAO)]   TOL
   6  -581.16792349499    -2051.1814472     834.58129275    0.556D-03 0.247D-11
          Norm of current diis error: 0.43392E-01
          max. resid. norm for Fia-block=  3.364D-03 for orbital     31a'        
          max. resid. fock norm         =  3.688D-03 for orbital    333a'        
          Delta Eig. =     0.1219047491 eV 
 
                                              current damping :  0.100
 ITERATION  ENERGY          1e-ENERGY        2e-ENERGY     RMS[dD(SAO)]   TOL
   7  -581.16806089087    -2051.1715938     834.57130203    0.246D-03 0.236D-11
          Norm of current diis error: 0.18946E-01
          max. resid. norm for Fia-block=  1.741D-03 for orbital     35a'        
          max. resid. fock norm         =  1.770D-03 for orbital     35a'        
          Delta Eig. =     0.0641251796 eV 
 
                                              current damping :  0.150
 ITERATION  ENERGY          1e-ENERGY        2e-ENERGY     RMS[dD(SAO)]   TOL
   8  -581.16809598972    -2051.1787661     834.57843919    0.134D-03 0.226D-11
          Norm of current diis error: 0.83497E-02
          max. resid. norm for Fia-block=  6.005D-04 for orbital     31a'        
          max. resid. fock norm         =  7.607D-04 for orbital    338a'        
          Delta Eig. =     0.0302334252 eV 
 
                                              current damping :  0.200
 ITERATION  ENERGY          1e-ENERGY        2e-ENERGY     RMS[dD(SAO)]   TOL
   9  -581.16810219922    -2051.1743900     834.57405689    0.493D-04 0.219D-11
          Norm of current diis error: 0.39769E-02
          max. resid. norm for Fia-block=  4.636D-04 for orbital     35a'        
          max. resid. fock norm         =  4.720D-04 for orbital     35a'        
          Delta Eig. =     0.0135934492 eV 
 
                                              current damping :  0.250
 ITERATION  ENERGY          1e-ENERGY        2e-ENERGY     RMS[dD(SAO)]   TOL
  10  -581.16810372113    -2051.1763424     834.57600774    0.190D-04 0.213D-11
          Norm of current diis error: 0.21844E-02
          max. resid. norm for Fia-block=  2.516D-04 for orbital      3a"        
          max. resid. fock norm         =  2.580D-04 for orbital     35a'        
 mo-orthogonalization: Cholesky decomposition
          Delta Eig. =     0.0054043912 eV 
 
                                              current damping :  0.300
 ITERATION  ENERGY          1e-ENERGY        2e-ENERGY     RMS[dD(SAO)]   TOL
  11  -581.16810433771    -2051.1756862     834.57535093    0.136D-04 0.205D-11
          Norm of current diis error: 0.13366E-02
          max. resid. norm for Fia-block=  2.301D-04 for orbital     35a'        
          max. resid. fock norm         =  2.317D-04 for orbital     35a'        
          Delta Eig. =     0.0028935673 eV 
 
                                              current damping :  0.350
 ITERATION  ENERGY          1e-ENERGY        2e-ENERGY     RMS[dD(SAO)]   TOL
  12  -581.16810460409    -2051.1761397     834.57580419    0.837D-05 0.196D-11
          Norm of current diis error: 0.78625E-03
          max. resid. norm for Fia-block=  1.430D-04 for orbital      3a"        
          max. resid. fock norm         =  1.446D-04 for orbital      3a"        
          Delta Eig. =     0.0015682482 eV 
 
                                              current damping :  0.400
 ITERATION  ENERGY          1e-ENERGY        2e-ENERGY     RMS[dD(SAO)]   TOL
  13  -581.16810470923    -2051.1759951     834.57565943    0.561D-05 0.186D-11
          Norm of current diis error: 0.44384E-03
          max. resid. norm for Fia-block=  1.013D-04 for orbital     35a'        
          max. resid. fock norm         =  1.017D-04 for orbital     35a'        
          Delta Eig. =     0.0011712710 eV 
 
                                              current damping :  0.450
 ITERATION  ENERGY          1e-ENERGY        2e-ENERGY     RMS[dD(SAO)]   TOL
  14  -581.16810474273    -2051.1760795     834.57574387    0.324D-05 0.178D-11
          Norm of current diis error: 0.22691E-03
          max. resid. norm for Fia-block=  4.653D-05 for orbital      3a"        
          max. resid. fock norm         =  4.697D-05 for orbital      3a"        
          Delta Eig. =     0.0003602832 eV 
 
                                              current damping :  0.500
 ITERATION  ENERGY          1e-ENERGY        2e-ENERGY     RMS[dD(SAO)]   TOL
  15  -581.16810475105    -2051.1760708     834.57573510    0.173D-05 0.171D-11
          Norm of current diis error: 0.11555E-03
          max. resid. norm for Fia-block=  2.521D-05 for orbital     35a'        
          max. resid. fock norm         =  2.527D-05 for orbital     35a'        
 mo-orthogonalization: Cholesky decomposition
          Delta Eig. =     0.0001935680 eV 
 
                                              current damping :  0.550
 ITERATION  ENERGY          1e-ENERGY        2e-ENERGY     RMS[dD(SAO)]   TOL
  16  -581.16810475296    -2051.1760850     834.57574928    0.986D-06 0.168D-11
          Norm of current diis error: 0.55570E-04
          max. resid. norm for Fia-block=  9.549D-06 for orbital     35a'        
          max. resid. fock norm         =  1.032D-05 for orbital    150a'        
          Delta Eig. =     0.0000557905 eV 
 
                                              current damping :  0.600
 ITERATION  ENERGY          1e-ENERGY        2e-ENERGY     RMS[dD(SAO)]   TOL
  17  -581.16810475348    -2051.1760803     834.57574460    0.616D-06 0.168D-11
          Norm of current diis error: 0.29008E-04
          max. resid. norm for Fia-block=  4.454D-06 for orbital     35a'        
          max. resid. fock norm         =  2.390D-05 for orbital    152a'        
          Delta Eig. =     0.0001005595 eV 
 
                                              current damping :  0.650
 ITERATION  ENERGY          1e-ENERGY        2e-ENERGY     RMS[dD(SAO)]   TOL
  18  -581.16810475381    -2051.1760847     834.57574904    0.826D-06 0.167D-11
          Norm of current diis error: 0.15033E-04
          max. resid. norm for Fia-block=  2.104D-06 for orbital      7a"        
          max. resid. fock norm         =  4.120D-05 for orbital    152a'        
          Delta Eig. =     0.0001950563 eV 

 ENERGY & DENSITY CONVERGED !

 
                                              current damping :  0.700
 ITERATION  ENERGY          1e-ENERGY        2e-ENERGY     RMS[dD(SAO)]   TOL
  19  -581.16810475425    -2051.1760836     834.57574796    0.117D-05 0.168D-11
          max. resid. norm for Fia-block=  6.408D-07 for orbital      7a"        
          max. resid. fock norm         =  1.229D-05 for orbital    139a'        

 convergence criteria satisfied after 19 iterations


   *************************************************************************
   ADC(2) - opt by CAM-B3LYP gaussian                                       
   *************************************************************************


                  ------------------------------------------ 
                 |  total energy      =   -581.16810475425  |
                  ------------------------------------------ 
                 :  kinetic energy    =    580.58561650021  :
                 :  potential energy  =  -1161.75372125446  :
                 :  virial theorem    =      1.99899772846  :
                 :  wavefunction norm =      1.00000000000  :
                  .......................................... 


 <geterg> : there is no data group $energy 


 <skperg> : $end is missing 


 orbitals $scfmo  will be written to file mos

    irrep                 31a'        32a'        33a'        34a'        35a'  
 eigenvalues H         -0.58244    -0.55599    -0.50580    -0.49900    -0.48987
            eV         -15.8491    -15.1295    -13.7636    -13.5786    -13.3301
 occupation              2.0000      2.0000      2.0000      2.0000      2.0000 

    irrep                 36a'        37a'        38a'        39a'        40a'  
 eigenvalues H          0.04860     0.06952     0.07050     0.09525     0.09641
            eV           1.3226      1.8918      1.9184      2.5918      2.6235

    irrep                  3a"         4a"         5a"         6a"         7a"  
 eigenvalues H         -0.51920    -0.50152    -0.46140    -0.39159    -0.34588
            eV         -14.1282    -13.6473    -12.5555    -10.6557     -9.4120
 occupation              2.0000      2.0000      2.0000      2.0000      2.0000 

    irrep                  8a"         9a"        10a"        11a"        12a"  
 eigenvalues H          0.04033     0.05704     0.11943     0.13957     0.15838
            eV           1.0976      1.5521      3.2499      3.7980      4.3098
 
 
 
 
 ==============================================================================
                           electrostatic moments
 ==============================================================================
 
              nuc           elec       ->  total
 ------------------------------------------------------------------------------
                          charge      
 ------------------------------------------------------------------------------
          84.000000     -84.000000       0.000000
 
 ------------------------------------------------------------------------------
                       dipole moment  
 ------------------------------------------------------------------------------
   x     -54.363411      55.714212       1.350801
   y     -52.892820      55.021204       2.128385
   z       0.000000       0.000000       0.000000
 
   | dipole moment | =     2.5208 a.u. =     6.4074 debye 
 
 ------------------------------------------------------------------------------
                     quadrupole moment
 ------------------------------------------------------------------------------
  xx    1510.352756   -1576.196504     -65.843748
  yy     544.628311    -596.960469     -52.332158
  zz       0.000000     -52.177281     -52.177281
  xy      34.231359     -27.874933       6.356425
  xz       0.000000       0.000000       0.000000
  yz       0.000000       0.000000       0.000000
 
     1/3  trace=     -56.784396
     anisotropy=      17.489772
 
 ==============================================================================
 


    ------------------------------------------------------------------------
         total  cpu-time : 34 minutes and  2 seconds
         total wall-time : 34 minutes and  4 seconds
    ------------------------------------------------------------------------


   ****  dscf : all done  ****


    2023-01-24 10:49:57.253 

