 Entering Gaussian System, Link 0=g09
 Initial command:
 /apps/software//g09/l1.exe /scratch/matheusmaximo/73292.cluster.abaxnet/Gau-2747.inp -scrdir=/scratch/matheusmaximo/73292.cluster.abaxnet/
 Entering Link 1 = /apps/software//g09/l1.exe PID=      2748.
  
 Copyright (c) 1988,1990,1992,1993,1995,1998,2003,2009, Gaussian, Inc.
                  All Rights Reserved.
  
 This is part of the Gaussian(R) 09 program.  It is based on
 the Gaussian(R) 03 system (copyright 2003, Gaussian, Inc.),
 the Gaussian(R) 98 system (copyright 1998, Gaussian, Inc.),
 the Gaussian(R) 94 system (copyright 1995, Gaussian, Inc.),
 the Gaussian 92(TM) system (copyright 1992, Gaussian, Inc.),
 the Gaussian 90(TM) system (copyright 1990, Gaussian, Inc.),
 the Gaussian 88(TM) system (copyright 1988, Gaussian, Inc.),
 the Gaussian 86(TM) system (copyright 1986, Carnegie Mellon
 University), and the Gaussian 82(TM) system (copyright 1983,
 Carnegie Mellon University). Gaussian is a federally registered
 trademark of Gaussian, Inc.
  
 This software contains proprietary and confidential information,
 including trade secrets, belonging to Gaussian, Inc.
  
 This software is provided under written license and may be
 used, copied, transmitted, or stored only in accord with that
 written license.
  
 The following legend is applicable only to US Government
 contracts under FAR:
  
                    RESTRICTED RIGHTS LEGEND
  
 Use, reproduction and disclosure by the US Government is
 subject to restrictions as set forth in subparagraphs (a)
 and (c) of the Commercial Computer Software - Restricted
 Rights clause in FAR 52.227-19.
  
 Gaussian, Inc.
 340 Quinnipiac St., Bldg. 40, Wallingford CT 06492
  
  
 ---------------------------------------------------------------
 Warning -- This program may not be used in any manner that
 competes with the business of Gaussian, Inc. or will provide
 assistance to any competitor of Gaussian, Inc.  The licensee
 of this program is prohibited from giving any competitor of
 Gaussian, Inc. access to this program.  By using this program,
 the user acknowledges that Gaussian, Inc. is engaged in the
 business of creating and licensing software in the field of
 computational chemistry and represents and warrants to the
 licensee that it is not a competitor of Gaussian, Inc. and that
 it will not use this program in any manner prohibited above.
 ---------------------------------------------------------------
  

 Cite this work as:
 Gaussian 09, Revision A.02,
 M. J. Frisch, G. W. Trucks, H. B. Schlegel, G. E. Scuseria, 
 M. A. Robb, J. R. Cheeseman, G. Scalmani, V. Barone, B. Mennucci, 
 G. A. Petersson, H. Nakatsuji, M. Caricato, X. Li, H. P. Hratchian, 
 A. F. Izmaylov, J. Bloino, G. Zheng, J. L. Sonnenberg, M. Hada, 
 M. Ehara, K. Toyota, R. Fukuda, J. Hasegawa, M. Ishida, T. Nakajima, 
 Y. Honda, O. Kitao, H. Nakai, T. Vreven, J. A. Montgomery, Jr., 
 J. E. Peralta, F. Ogliaro, M. Bearpark, J. J. Heyd, E. Brothers, 
 K. N. Kudin, V. N. Staroverov, R. Kobayashi, J. Normand, 
 K. Raghavachari, A. Rendell, J. C. Burant, S. S. Iyengar, J. Tomasi, 
 M. Cossi, N. Rega, J. M. Millam, M. Klene, J. E. Knox, J. B. Cross, 
 V. Bakken, C. Adamo, J. Jaramillo, R. Gomperts, R. E. Stratmann, 
 O. Yazyev, A. J. Austin, R. Cammi, C. Pomelli, J. W. Ochterski, 
 R. L. Martin, K. Morokuma, V. G. Zakrzewski, G. A. Voth, 
 P. Salvador, J. J. Dannenberg, S. Dapprich, A. D. Daniels, 
 O. Farkas, J. B. Foresman, J. V. Ortiz, J. Cioslowski, 
 and D. J. Fox, Gaussian, Inc., Wallingford CT, 2009.
 
 ******************************************
 Gaussian 09:  EM64L-G09RevA.02 11-Jun-2009
                10-Mar-2023 
 ******************************************
 %chk=/home/matheusmaximo/Gaussian/SINGLEPOINT/CH3/CH3_SP.chk
 ----------------------------------------------------
 # td=(nstates=15) cam-b3lyp/gen scf=qc int=ultrafine
 ----------------------------------------------------
 1/38=1/1;
 2/12=2,17=6,18=5,40=1/2;
 3/5=7,11=2,16=1,25=1,30=1,74=-40,75=-5/1,2,8,3;
 4//1;
 5/5=2,8=3,38=5/8;
 8/6=1,10=1,108=15/1;
 9/41=15,42=1/14;
 6/7=2,8=2,9=2,10=2/1;
 99/5=1,9=1/99;
 ----------------------------------------
 NA+CH3 CAM-B3LYP def2-TZVPD Single point
 ----------------------------------------
 Symbolic Z-matrix:
 Charge =  0 Multiplicity = 1
 C                     0.07323   0.95599   0.0008 
 C                     0.95492  -0.11126  -0.00045 
 C                     0.49846  -1.4161   -0.00422 
 C                    -0.85754  -1.6441   -0.00468 
 C                    -1.7645   -0.58116  -0.00246 
 C                    -1.28908   0.74316  -0.00141 
 H                     0.47068   1.96038   0.00222 
 H                     1.2065   -2.23051  -0.00521 
 H                    -1.2321   -2.65991  -0.00967 
 N                     2.38726   0.14672   0.00259 
 O                     3.13793  -0.80982   0.00099 
 O                     2.75863   1.30481   0.00685 
 N                    -3.11386  -0.82974  -0.04322 
 H                    -3.42845  -1.76064   0.16598 
 H                    -3.74915  -0.09745   0.2175 
 C                    -2.25356   1.89067  -0.008 
 H                    -1.72478   2.84087  -0.03215 
 H                    -2.91344   1.85271  -0.87827 
 H                    -2.88716   1.89257   0.88393 
 
                          Input orientation:                          
 ---------------------------------------------------------------------
 Center     Atomic      Atomic             Coordinates (Angstroms)
 Number     Number       Type             X           Y           Z
 ---------------------------------------------------------------------
      1          6           0        0.073229    0.955993    0.000797
      2          6           0        0.954920   -0.111263   -0.000454
      3          6           0        0.498464   -1.416097   -0.004223
      4          6           0       -0.857535   -1.644102   -0.004683
      5          6           0       -1.764501   -0.581157   -0.002462
      6          6           0       -1.289084    0.743158   -0.001411
      7          1           0        0.470681    1.960381    0.002215
      8          1           0        1.206496   -2.230513   -0.005215
      9          1           0       -1.232104   -2.659915   -0.009674
     10          7           0        2.387264    0.146719    0.002586
     11          8           0        3.137927   -0.809822    0.000989
     12          8           0        2.758628    1.304813    0.006851
     13          7           0       -3.113858   -0.829737   -0.043220
     14          1           0       -3.428452   -1.760639    0.165976
     15          1           0       -3.749147   -0.097455    0.217498
     16          6           0       -2.253555    1.890667   -0.007996
     17          1           0       -1.724777    2.840874   -0.032152
     18          1           0       -2.913443    1.852706   -0.878267
     19          1           0       -2.887160    1.892570    0.883929
 ---------------------------------------------------------------------
                    Distance matrix (angstroms):
                    1          2          3          4          5
     1  C    0.000000
     2  C    1.384347   0.000000
     3  C    2.409909   1.382374   0.000000
     4  C    2.761675   2.373733   1.375035   0.000000
     5  C    2.395850   2.759720   2.412082   1.397299   0.000000
     6  C    1.378841   2.401165   2.803163   2.425955   1.407066
     7  H    1.080169   2.127488   3.376599   3.841420   3.384594
     8  H    3.382034   2.134136   1.079159   2.145718   3.398119
     9  H    3.844319   3.358390   2.131191   1.082682   2.145864
    10  N    2.451466   1.455395   2.451531   3.706186   4.215090
    11  O    3.537015   2.292053   2.708202   4.081638   4.907759
    12  O    2.707966   2.293183   3.537205   4.666141   4.900579
    13  N    3.653532   4.131947   3.659810   2.399097   1.372667
    14  H    4.434991   4.686372   3.945674   2.579209   2.046529
    15  H    3.970803   4.709134   4.453109   3.286777   2.054549
    16  C    2.507512   3.781811   4.302128   3.800457   2.519746
    17  H    2.605127   3.987091   4.802644   4.568137   3.422391
    18  H    3.239916   4.426281   4.805220   4.149407   2.830334
    19  H    3.228157   4.422562   4.816486   4.173375   2.857513
                    6          7          8          9         10
     6  C    0.000000
     7  H    2.139724   0.000000
     8  H    3.882095   4.255006   0.000000
     9  H    3.403560   4.924099   2.476121   0.000000
    10  N    3.724419   2.638686   2.654337   4.580083   0.000000
    11  O    4.691501   3.845546   2.397671   4.745537   1.215922
    12  O    4.086502   2.380020   3.861061   5.625414   1.216188
    13  N    2.409470   4.542658   4.541924   2.625200   5.587299
    14  H    3.297561   5.392221   4.661849   2.379810   6.122684
    15  H    2.608920   4.699786   5.399810   3.599072   6.145027
    16  C    1.499007   2.725147   5.381086   4.663813   4.957688
    17  H    2.142705   2.365689   5.857650   5.522853   4.916154
    18  H    2.153721   3.498448   5.865902   4.893373   5.637712
    19  H    2.158430   3.472335   5.877790   4.925734   5.625328
                   11         12         13         14         15
    11  O    0.000000
    12  O    2.148391   0.000000
    13  N    6.251972   6.248592   0.000000
    14  H    6.636912   6.906684   1.004644   0.000000
    15  H    6.927202   6.660471   1.003895   1.694603   0.000000
    16  C    6.029991   5.046328   2.853412   3.839620   2.498053
    17  H    6.080672   4.739402   3.924673   4.910772   3.576895
    18  H    6.669424   5.766803   2.816554   3.796306   2.387934
    19  H    6.662145   5.743661   2.884780   3.762232   2.268778
                   16         17         18         19
    16  C    0.000000
    17  H    1.087696   0.000000
    18  H    1.092824   1.762190   0.000000
    19  H    1.094070   1.757731   1.762843   0.000000
 Stoichiometry    C7H8N2O2
 Framework group  C1[X(C7H8N2O2)]
 Deg. of freedom    51
 Full point group                 C1      NOp   1
 Largest Abelian subgroup         C1      NOp   1
 Largest concise Abelian subgroup C1      NOp   1
                         Standard orientation:                         
 ---------------------------------------------------------------------
 Center     Atomic      Atomic             Coordinates (Angstroms)
 Number     Number       Type             X           Y           Z
 ---------------------------------------------------------------------
      1          6           0        0.073229    0.955993    0.000797
      2          6           0        0.954920   -0.111263   -0.000454
      3          6           0        0.498464   -1.416097   -0.004223
      4          6           0       -0.857535   -1.644102   -0.004683
      5          6           0       -1.764501   -0.581157   -0.002462
      6          6           0       -1.289084    0.743158   -0.001411
      7          1           0        0.470681    1.960381    0.002215
      8          1           0        1.206496   -2.230513   -0.005215
      9          1           0       -1.232104   -2.659915   -0.009674
     10          7           0        2.387264    0.146719    0.002586
     11          8           0        3.137927   -0.809822    0.000989
     12          8           0        2.758628    1.304813    0.006851
     13          7           0       -3.113858   -0.829737   -0.043220
     14          1           0       -3.428452   -1.760639    0.165976
     15          1           0       -3.749147   -0.097455    0.217498
     16          6           0       -2.253555    1.890667   -0.007996
     17          1           0       -1.724777    2.840874   -0.032152
     18          1           0       -2.913443    1.852706   -0.878267
     19          1           0       -2.887160    1.892570    0.883929
 ---------------------------------------------------------------------
 Rotational constants (GHZ):      2.4685885      0.7372089      0.5698121
 General basis read from cards:  (5D, 7F)
 There are   485 symmetry adapted basis functions of A   symmetry.
 Integral buffers will be    131072 words long.
 Raffenetti 2 integral format.
 Two-electron integral symmetry is turned on.
   485 basis functions,   732 primitive gaussians,   551 cartesian basis functions
    40 alpha electrons       40 beta electrons
       nuclear repulsion energy       592.5899092242 Hartrees.
 NAtoms=   19 NActive=   19 NUniq=   19 SFac= 7.50D-01 NAtFMM=   80 NAOKFM=F Big=F
 One-electron integrals computed using PRISM.
 NBasis=   485 RedAO= T  NBF=   485
 NBsUse=   482 1.00D-06 NBFU=   482
 Harris functional with IExCor=20419 diagonalized for initial guess.
 ExpMin= 4.85D-02 ExpMax= 2.70D+04 ExpMxC= 9.22D+02 IAcc=3 IRadAn=         5 AccDes= 0.00D+00
 HarFok:  IExCor=20419 AccDes= 0.00D+00 IRadAn=         5 IDoV= 1
 ScaDFX=  1.000000  1.000000  1.000000  1.000000
 FoFCou: FMM=F IPFlag=           0 FMFlag=      100000 FMFlg1=           0
         NFxFlg=           0 DoJE=T BraDBF=F KetDBF=T FulRan=T
         Omega=  0.000000  0.000000  1.000000  0.000000  0.000000 ICntrl=     500 IOpCl=  0
         NMat0=    1 NMatS0=    1 NMatT0=    0 NMatD0=    1 NMtDS0=    0 NMtDT0=    0
         I1Cent=           4 NGrid=           0.
 Petite list used in FoFCou.
 Initial guess orbital symmetries:
       Occupied  (A) (A) (A) (A) (A) (A) (A) (A) (A) (A) (A) (A)
                 (A) (A) (A) (A) (A) (A) (A) (A) (A) (A) (A) (A)
                 (A) (A) (A) (A) (A) (A) (A) (A) (A) (A) (A) (A)
                 (A) (A) (A) (A)
       Virtual   (A) (A) (A) (A) (A) (A) (A) (A) (A) (A) (A) (A)
                 (A) (A) (A) (A) (A) (A) (A) (A) (A) (A) (A) (A)
                 (A) (A) (A) (A) (A) (A) (A) (A) (A) (A) (A) (A)
                 (A) (A) (A) (A) (A) (A) (A) (A) (A) (A) (A) (A)
                 (A) (A) (A) (A) (A) (A) (A) (A) (A) (A) (A) (A)
                 (A) (A) (A) (A) (A) (A) (A) (A) (A) (A) (A) (A)
                 (A) (A) (A) (A) (A) (A) (A) (A) (A) (A) (A) (A)
                 (A) (A) (A) (A) (A) (A) (A) (A) (A) (A) (A) (A)
                 (A) (A) (A) (A) (A) (A) (A) (A) (A) (A) (A) (A)
                 (A) (A) (A) (A) (A) (A) (A) (A) (A) (A) (A) (A)
                 (A) (A) (A) (A) (A) (A) (A) (A) (A) (A) (A) (A)
                 (A) (A) (A) (A) (A) (A) (A) (A) (A) (A) (A) (A)
                 (A) (A) (A) (A) (A) (A) (A) (A) (A) (A) (A) (A)
                 (A) (A) (A) (A) (A) (A) (A) (A) (A) (A) (A) (A)
                 (A) (A) (A) (A) (A) (A) (A) (A) (A) (A) (A) (A)
                 (A) (A) (A) (A) (A) (A) (A) (A) (A) (A) (A) (A)
                 (A) (A) (A) (A) (A) (A) (A) (A) (A) (A) (A) (A)
                 (A) (A) (A) (A) (A) (A) (A) (A) (A) (A) (A) (A)
                 (A) (A) (A) (A) (A) (A) (A) (A) (A) (A) (A) (A)
                 (A) (A) (A) (A) (A) (A) (A) (A) (A) (A) (A) (A)
                 (A) (A) (A) (A) (A) (A) (A) (A) (A) (A) (A) (A)
                 (A) (A) (A) (A) (A) (A) (A) (A) (A) (A) (A) (A)
                 (A) (A) (A) (A) (A) (A) (A) (A) (A) (A) (A) (A)
                 (A) (A) (A) (A) (A) (A) (A) (A) (A) (A) (A) (A)
                 (A) (A) (A) (A) (A) (A) (A) (A) (A) (A) (A) (A)
                 (A) (A) (A) (A) (A) (A) (A) (A) (A) (A) (A) (A)
                 (A) (A) (A) (A) (A) (A) (A) (A) (A) (A) (A) (A)
                 (A) (A) (A) (A) (A) (A) (A) (A) (A) (A) (A) (A)
                 (A) (A) (A) (A) (A) (A) (A) (A) (A) (A) (A) (A)
                 (A) (A) (A) (A) (A) (A) (A) (A) (A) (A) (A) (A)
                 (A) (A) (A) (A) (A) (A) (A) (A) (A) (A) (A) (A)
                 (A) (A) (A) (A) (A) (A) (A) (A) (A) (A) (A) (A)
                 (A) (A) (A) (A) (A) (A) (A) (A) (A) (A) (A) (A)
                 (A) (A) (A) (A) (A) (A) (A) (A) (A) (A) (A) (A)
                 (A) (A) (A) (A) (A) (A) (A) (A) (A) (A) (A) (A)
                 (A) (A) (A) (A) (A) (A) (A) (A) (A) (A) (A) (A)
                 (A) (A) (A) (A) (A) (A) (A) (A) (A) (A)
 The electronic state of the initial guess is 1-A.
 FoFJK:  IHMeth= 1 ICntrl=     0 DoSepK=T KAlg= 1 I1Cent= 0 FoldK=F
 Gradient too large for Newton-Raphson -- use scaled steepest descent instead.
 FoFJK:  IHMeth= 1 ICntrl=     0 DoSepK=T KAlg= 1 I1Cent= 0 FoldK=F
 FoFJK:  IHMeth= 1 ICntrl=     0 DoSepK=T KAlg= 1 I1Cent= 0 FoldK=F
 FoFJK:  IHMeth= 1 ICntrl=     0 DoSepK=T KAlg= 1 I1Cent= 0 FoldK=F
 FoFJK:  IHMeth= 1 ICntrl=     0 DoSepK=T KAlg= 1 I1Cent= 0 FoldK=F
 Gradient too large for Newton-Raphson -- use scaled steepest descent instead.
 FoFJK:  IHMeth= 1 ICntrl=     0 DoSepK=T KAlg= 1 I1Cent= 0 FoldK=F
 FoFJK:  IHMeth= 1 ICntrl=     0 DoSepK=T KAlg= 1 I1Cent= 0 FoldK=F
 FoFJK:  IHMeth= 1 ICntrl=     0 DoSepK=T KAlg= 1 I1Cent= 0 FoldK=F
 FoFJK:  IHMeth= 1 ICntrl=     0 DoSepK=T KAlg= 1 I1Cent= 0 FoldK=F
 FoFJK:  IHMeth= 1 ICntrl=     0 DoSepK=T KAlg= 1 I1Cent= 0 FoldK=F
 Gradient too large for Newton-Raphson -- use scaled steepest descent instead.
 FoFJK:  IHMeth= 1 ICntrl=     0 DoSepK=T KAlg= 1 I1Cent= 0 FoldK=F
 FoFJK:  IHMeth= 1 ICntrl=     0 DoSepK=T KAlg= 1 I1Cent= 0 FoldK=F
 FoFJK:  IHMeth= 1 ICntrl=     0 DoSepK=T KAlg= 1 I1Cent= 0 FoldK=F
 Gradient too large for Newton-Raphson -- use scaled steepest descent instead.
 FoFJK:  IHMeth= 1 ICntrl=     0 DoSepK=T KAlg= 1 I1Cent= 0 FoldK=F
 FoFJK:  IHMeth= 1 ICntrl=     0 DoSepK=T KAlg= 1 I1Cent= 0 FoldK=F
 FoFJK:  IHMeth= 1 ICntrl=     0 DoSepK=T KAlg= 1 I1Cent= 0 FoldK=F
 FoFJK:  IHMeth= 1 ICntrl=     0 DoSepK=T KAlg= 1 I1Cent= 0 FoldK=F
 Gradient too large for Newton-Raphson -- use scaled steepest descent instead.
 FoFJK:  IHMeth= 1 ICntrl=     0 DoSepK=T KAlg= 1 I1Cent= 0 FoldK=F
 FoFJK:  IHMeth= 1 ICntrl=     0 DoSepK=T KAlg= 1 I1Cent= 0 FoldK=F
 FoFJK:  IHMeth= 1 ICntrl=     0 DoSepK=T KAlg= 1 I1Cent= 0 FoldK=F
 LinEq1:  Iter=  0 NonCon=     1 RMS=7.18D-05 Max=7.13D-03
 AX will form     1 AO Fock derivatives at one time.
 FoFJK:  IHMeth= 1 ICntrl=     0 DoSepK=T KAlg= 1 I1Cent= 0 FoldK=F
 LinEq1:  Iter=  1 NonCon=     1 RMS=5.39D-05 Max=2.74D-03
 FoFJK:  IHMeth= 1 ICntrl=     0 DoSepK=T KAlg= 1 I1Cent= 0 FoldK=F
 LinEq1:  Iter=  2 NonCon=     1 RMS=1.15D-05 Max=6.65D-04
 FoFJK:  IHMeth= 1 ICntrl=     0 DoSepK=T KAlg= 1 I1Cent= 0 FoldK=F
 LinEq1:  Iter=  3 NonCon=     1 RMS=1.28D-05 Max=9.00D-04
 FoFJK:  IHMeth= 1 ICntrl=     0 DoSepK=T KAlg= 1 I1Cent= 0 FoldK=F
 LinEq1:  Iter=  4 NonCon=     1 RMS=2.14D-06 Max=9.72D-05
 FoFJK:  IHMeth= 1 ICntrl=     0 DoSepK=T KAlg= 1 I1Cent= 0 FoldK=F
 LinEq1:  Iter=  5 NonCon=     1 RMS=7.70D-07 Max=3.74D-05
 FoFJK:  IHMeth= 1 ICntrl=     0 DoSepK=T KAlg= 1 I1Cent= 0 FoldK=F
 LinEq1:  Iter=  6 NonCon=     1 RMS=4.10D-07 Max=2.29D-05
 FoFJK:  IHMeth= 1 ICntrl=     0 DoSepK=T KAlg= 1 I1Cent= 0 FoldK=F
 LinEq1:  Iter=  7 NonCon=     1 RMS=1.71D-07 Max=4.86D-06
 FoFJK:  IHMeth= 1 ICntrl=     0 DoSepK=T KAlg= 1 I1Cent= 0 FoldK=F
 LinEq1:  Iter=  8 NonCon=     1 RMS=7.00D-08 Max=2.77D-06
 FoFJK:  IHMeth= 1 ICntrl=     0 DoSepK=T KAlg= 1 I1Cent= 0 FoldK=F
 LinEq1:  Iter=  9 NonCon=     1 RMS=3.69D-08 Max=1.34D-06
 FoFJK:  IHMeth= 1 ICntrl=     0 DoSepK=T KAlg= 1 I1Cent= 0 FoldK=F
 LinEq1:  Iter= 10 NonCon=     1 RMS=1.58D-08 Max=6.85D-07
 FoFJK:  IHMeth= 1 ICntrl=     0 DoSepK=T KAlg= 1 I1Cent= 0 FoldK=F
 LinEq1:  Iter= 11 NonCon=     1 RMS=7.50D-09 Max=3.38D-07
 FoFJK:  IHMeth= 1 ICntrl=     0 DoSepK=T KAlg= 1 I1Cent= 0 FoldK=F
 LinEq1:  Iter= 12 NonCon=     0 RMS=3.16D-09 Max=1.23D-07
 Linear equations converged to 1.880D-08 1.880D-07 after    12 iterations.
 FoFJK:  IHMeth= 1 ICntrl=     0 DoSepK=T KAlg= 1 I1Cent= 0 FoldK=F
 FoFJK:  IHMeth= 1 ICntrl=     0 DoSepK=T KAlg= 1 I1Cent= 0 FoldK=F
 FoFJK:  IHMeth= 1 ICntrl=     0 DoSepK=T KAlg= 1 I1Cent= 0 FoldK=F
 LinEq1:  Iter=  0 NonCon=     1 RMS=6.90D-07 Max=5.12D-05
 FoFJK:  IHMeth= 1 ICntrl=     0 DoSepK=T KAlg= 1 I1Cent= 0 FoldK=F
 LinEq1:  Iter=  1 NonCon=     1 RMS=2.21D-07 Max=9.75D-06
 FoFJK:  IHMeth= 1 ICntrl=     0 DoSepK=T KAlg= 1 I1Cent= 0 FoldK=F
 LinEq1:  Iter=  2 NonCon=     1 RMS=1.14D-07 Max=4.45D-06
 FoFJK:  IHMeth= 1 ICntrl=     0 DoSepK=T KAlg= 1 I1Cent= 0 FoldK=F
 LinEq1:  Iter=  3 NonCon=     1 RMS=6.25D-08 Max=2.59D-06
 FoFJK:  IHMeth= 1 ICntrl=     0 DoSepK=T KAlg= 1 I1Cent= 0 FoldK=F
 LinEq1:  Iter=  4 NonCon=     1 RMS=4.82D-08 Max=3.68D-06
 FoFJK:  IHMeth= 1 ICntrl=     0 DoSepK=T KAlg= 1 I1Cent= 0 FoldK=F
 LinEq1:  Iter=  5 NonCon=     1 RMS=3.01D-08 Max=1.54D-06
 FoFJK:  IHMeth= 1 ICntrl=     0 DoSepK=T KAlg= 1 I1Cent= 0 FoldK=F
 LinEq1:  Iter=  6 NonCon=     1 RMS=1.87D-08 Max=6.50D-07
 FoFJK:  IHMeth= 1 ICntrl=     0 DoSepK=T KAlg= 1 I1Cent= 0 FoldK=F
 LinEq1:  Iter=  7 NonCon=     1 RMS=8.78D-09 Max=3.62D-07
 FoFJK:  IHMeth= 1 ICntrl=     0 DoSepK=T KAlg= 1 I1Cent= 0 FoldK=F
 LinEq1:  Iter=  8 NonCon=     1 RMS=4.88D-09 Max=2.23D-07
 FoFJK:  IHMeth= 1 ICntrl=     0 DoSepK=T KAlg= 1 I1Cent= 0 FoldK=F
 LinEq1:  Iter=  9 NonCon=     1 RMS=1.88D-09 Max=5.25D-08
 FoFJK:  IHMeth= 1 ICntrl=     0 DoSepK=T KAlg= 1 I1Cent= 0 FoldK=F
 LinEq1:  Iter= 10 NonCon=     1 RMS=9.15D-10 Max=3.22D-08
 FoFJK:  IHMeth= 1 ICntrl=     0 DoSepK=T KAlg= 1 I1Cent= 0 FoldK=F
 LinEq1:  Iter= 11 NonCon=     1 RMS=3.34D-10 Max=1.25D-08
 FoFJK:  IHMeth= 1 ICntrl=     0 DoSepK=T KAlg= 1 I1Cent= 0 FoldK=F
 LinEq1:  Iter= 12 NonCon=     1 RMS=1.92D-10 Max=9.95D-09
 FoFJK:  IHMeth= 1 ICntrl=     0 DoSepK=T KAlg= 1 I1Cent= 0 FoldK=F
 LinEq1:  Iter= 13 NonCon=     0 RMS=8.20D-11 Max=4.34D-09
 Linear equations converged to 9.944D-10 9.944D-09 after    13 iterations.
 FoFJK:  IHMeth= 1 ICntrl=     0 DoSepK=T KAlg= 1 I1Cent= 0 FoldK=F
 SCF Done:  E(RCAM-B3LYP) =  -531.395907725     a.u. after    8 cycles
            Convg  =    0.6003D-08                    49 Fock formations.
              S**2 =  0.0000                  -V/T =  2.0040
 ExpMin= 4.85D-02 ExpMax= 2.70D+04 ExpMxC= 9.22D+02 IAcc=3 IRadAn=         5 AccDes= 0.00D+00
 HarFok:  IExCor=  205 AccDes= 0.00D+00 IRadAn=         5 IDoV=-2
 ScaDFX=  1.000000  1.000000  1.000000  1.000000
 Range of M.O.s used for correlation:    12   482
 NBasis=   485 NAE=    40 NBE=    40 NFC=    11 NFV=     0
 NROrb=    471 NOA=    29 NOB=    29 NVA=   442 NVB=   442

 **** Warning!!: The largest alpha MO coefficient is  0.18489565D+03

 Would need an additional 34950700000 words for in-memory AO integral storage.
 Orbital symmetries:
       Occupied  (A) (A) (A) (A) (A) (A) (A) (A) (A) (A) (A) (A)
                 (A) (A) (A) (A) (A) (A) (A) (A) (A) (A) (A) (A)
                 (A) (A) (A) (A) (A) (A) (A) (A) (A) (A) (A) (A)
                 (A) (A) (A) (A)
       Virtual   (A) (A) (A) (A) (A) (A) (A) (A) (A) (A) (A) (A)
                 (A) (A) (A) (A) (A) (A) (A) (A) (A) (A) (A) (A)
                 (A) (A) (A) (A) (A) (A) (A) (A) (A) (A) (A) (A)
                 (A) (A) (A) (A) (A) (A) (A) (A) (A) (A) (A) (A)
                 (A) (A) (A) (A) (A) (A) (A) (A) (A) (A) (A) (A)
                 (A) (A) (A) (A) (A) (A) (A) (A) (A) (A) (A) (A)
                 (A) (A) (A) (A) (A) (A) (A) (A) (A) (A) (A) (A)
                 (A) (A) (A) (A) (A) (A) (A) (A) (A) (A) (A) (A)
                 (A) (A) (A) (A) (A) (A) (A) (A) (A) (A) (A) (A)
                 (A) (A) (A) (A) (A) (A) (A) (A) (A) (A) (A) (A)
                 (A) (A) (A) (A) (A) (A) (A) (A) (A) (A) (A) (A)
                 (A) (A) (A) (A) (A) (A) (A) (A) (A) (A) (A) (A)
                 (A) (A) (A) (A) (A) (A) (A) (A) (A) (A) (A) (A)
                 (A) (A) (A) (A) (A) (A) (A) (A) (A) (A) (A) (A)
                 (A) (A) (A) (A) (A) (A) (A) (A) (A) (A) (A) (A)
                 (A) (A) (A) (A) (A) (A) (A) (A) (A) (A) (A) (A)
                 (A) (A) (A) (A) (A) (A) (A) (A) (A) (A) (A) (A)
                 (A) (A) (A) (A) (A) (A) (A) (A) (A) (A) (A) (A)
                 (A) (A) (A) (A) (A) (A) (A) (A) (A) (A) (A) (A)
                 (A) (A) (A) (A) (A) (A) (A) (A) (A) (A) (A) (A)
                 (A) (A) (A) (A) (A) (A) (A) (A) (A) (A) (A) (A)
                 (A) (A) (A) (A) (A) (A) (A) (A) (A) (A) (A) (A)
                 (A) (A) (A) (A) (A) (A) (A) (A) (A) (A) (A) (A)
                 (A) (A) (A) (A) (A) (A) (A) (A) (A) (A) (A) (A)
                 (A) (A) (A) (A) (A) (A) (A) (A) (A) (A) (A) (A)
                 (A) (A) (A) (A) (A) (A) (A) (A) (A) (A) (A) (A)
                 (A) (A) (A) (A) (A) (A) (A) (A) (A) (A) (A) (A)
                 (A) (A) (A) (A) (A) (A) (A) (A) (A) (A) (A) (A)
                 (A) (A) (A) (A) (A) (A) (A) (A) (A) (A) (A) (A)
                 (A) (A) (A) (A) (A) (A) (A) (A) (A) (A) (A) (A)
                 (A) (A) (A) (A) (A) (A) (A) (A) (A) (A) (A) (A)
                 (A) (A) (A) (A) (A) (A) (A) (A) (A) (A) (A) (A)
                 (A) (A) (A) (A) (A) (A) (A) (A) (A) (A) (A) (A)
                 (A) (A) (A) (A) (A) (A) (A) (A) (A) (A) (A) (A)
                 (A) (A) (A) (A) (A) (A) (A) (A) (A) (A) (A) (A)
                 (A) (A) (A) (A) (A) (A) (A) (A) (A) (A) (A) (A)
                 (A) (A) (A) (A) (A) (A) (A) (A) (A) (A)
    60 initial guesses have been made.
 Convergence on wavefunction:    0.001000000000000
 Iteration     1 Dimension    60 NMult    60
 CISAX will form    20 AO SS matrices at one time.
 FoFJK:  IHMeth= 1 ICntrl=     0 DoSepK=T KAlg= 1 I1Cent= 0 FoldK=F
 FoFJK:  IHMeth= 1 ICntrl=     0 DoSepK=T KAlg= 1 I1Cent= 0 FoldK=F
 FoFJK:  IHMeth= 1 ICntrl=     0 DoSepK=T KAlg= 1 I1Cent= 0 FoldK=F
 FoFJK:  IHMeth= 1 ICntrl=     0 DoSepK=T KAlg= 1 I1Cent= 0 FoldK=F
 FoFJK:  IHMeth= 1 ICntrl=     0 DoSepK=T KAlg= 1 I1Cent= 0 FoldK=F
 FoFJK:  IHMeth= 1 ICntrl=     0 DoSepK=T KAlg= 1 I1Cent= 0 FoldK=F
 New state      1 was old state      5
 New state      2 was old state      9
 New state      3 was old state      1
 New state      4 was old state      2
 New state      5 was old state      3
 New state      6 was old state      4
 New state      7 was old state      6
 New state      8 was old state      7
 New state      9 was old state     11
 New state     11 was old state     13
 New state     12 was old state     14
 No map to state     13
 New state     14 was old state     15
 No map to state     15
 Iteration     2 Dimension    90 NMult    90
 FoFJK:  IHMeth= 1 ICntrl=     0 DoSepK=T KAlg= 1 I1Cent= 0 FoldK=F
 FoFJK:  IHMeth= 1 ICntrl=     0 DoSepK=T KAlg= 1 I1Cent= 0 FoldK=F
 FoFJK:  IHMeth= 1 ICntrl=     0 DoSepK=T KAlg= 1 I1Cent= 0 FoldK=F
 FoFJK:  IHMeth= 1 ICntrl=     0 DoSepK=T KAlg= 1 I1Cent= 0 FoldK=F
 New state      2 was old state      3
 New state      3 was old state      2
 New state      8 was old state      9
 New state      9 was old state      8
 New state     11 was old state     14
 New state     12 was old state     11
 New state     13 was old state     15
 New state     14 was old state     12
 No map to state     15
 Iteration     3 Dimension   120 NMult   120
 FoFJK:  IHMeth= 1 ICntrl=     0 DoSepK=T KAlg= 1 I1Cent= 0 FoldK=F
 FoFJK:  IHMeth= 1 ICntrl=     0 DoSepK=T KAlg= 1 I1Cent= 0 FoldK=F
 FoFJK:  IHMeth= 1 ICntrl=     0 DoSepK=T KAlg= 1 I1Cent= 0 FoldK=F
 FoFJK:  IHMeth= 1 ICntrl=     0 DoSepK=T KAlg= 1 I1Cent= 0 FoldK=F
 New state     10 was old state     11
 New state     11 was old state     10
 No map to state     13
 New state     14 was old state     13
 New state     15 was old state     14
 Iteration     4 Dimension   150 NMult   150
 FoFJK:  IHMeth= 1 ICntrl=     0 DoSepK=T KAlg= 1 I1Cent= 0 FoldK=F
 FoFJK:  IHMeth= 1 ICntrl=     0 DoSepK=T KAlg= 1 I1Cent= 0 FoldK=F
 FoFJK:  IHMeth= 1 ICntrl=     0 DoSepK=T KAlg= 1 I1Cent= 0 FoldK=F
 FoFJK:  IHMeth= 1 ICntrl=     0 DoSepK=T KAlg= 1 I1Cent= 0 FoldK=F
 New state      9 was old state     10
 New state     10 was old state      9
 Iteration     5 Dimension   174 NMult   174
 FoFJK:  IHMeth= 1 ICntrl=     0 DoSepK=T KAlg= 1 I1Cent= 0 FoldK=F
 FoFJK:  IHMeth= 1 ICntrl=     0 DoSepK=T KAlg= 1 I1Cent= 0 FoldK=F
 Iteration     6 Dimension   188 NMult   188
 FoFJK:  IHMeth= 1 ICntrl=     0 DoSepK=T KAlg= 1 I1Cent= 0 FoldK=F
 FoFJK:  IHMeth= 1 ICntrl=     0 DoSepK=T KAlg= 1 I1Cent= 0 FoldK=F
 Iteration     7 Dimension   190 NMult   190
 FoFJK:  IHMeth= 1 ICntrl=     0 DoSepK=T KAlg= 1 I1Cent= 0 FoldK=F
 FoFJK:  IHMeth= 1 ICntrl=     0 DoSepK=T KAlg= 1 I1Cent= 0 FoldK=F
 Iteration     8 Dimension   192 NMult   192
 FoFJK:  IHMeth= 1 ICntrl=     0 DoSepK=T KAlg= 1 I1Cent= 0 FoldK=F
 FoFJK:  IHMeth= 1 ICntrl=     0 DoSepK=T KAlg= 1 I1Cent= 0 FoldK=F
 ***********************************************************************
 Excited states from <AA,BB:AA,BB> singles matrix:
 ***********************************************************************
 
 Ground to excited state transition electric dipole moments (Au):
       state          X           Y           Z        Dip. S.      Osc.
         1         0.0117      0.0022     -0.0001      0.0001      0.0000
         2         1.7889      0.3058      0.0143      3.2938      0.3544
         3        -0.0082     -0.0009     -0.0643      0.0042      0.0005
         4         0.1285      0.1312      0.0044      0.0338      0.0040
         5        -0.1797      0.4121      0.1638      0.2289      0.0309
         6         0.2685     -0.6579      0.1085      0.5167      0.0704
         7         0.2050     -0.0348     -0.1178      0.0571      0.0088
         8        -0.3703      0.0153     -0.0808      0.1439      0.0224
         9        -0.3185      0.9792      0.0005      1.0603      0.1675
        10         0.2026     -0.0208     -0.1694      0.0702      0.0111
        11        -1.5791     -0.3873      0.0078      2.6437      0.4468
        12        -0.4989     -0.0804     -0.1068      0.2668      0.0455
        13        -0.0025      0.0148     -0.0464      0.0024      0.0004
        14         0.0559      0.0542      0.0052      0.0061      0.0011
        15         0.0061      0.0598     -0.0192      0.0040      0.0007
 Ground to excited state transition velocity dipole moments (Au):
       state          X           Y           Z        Dip. S.      Osc.
         1        -0.0018     -0.0003      0.0000      0.0000      0.0000
         2        -0.2885     -0.0494     -0.0023      0.0857      0.3539
         3         0.0014      0.0001      0.0111      0.0001      0.0005
         4        -0.0229     -0.0233     -0.0009      0.0011      0.0040
         5         0.0366     -0.0834     -0.0374      0.0097      0.0319
         6        -0.0545      0.1345     -0.0249      0.0217      0.0707
         7        -0.0473      0.0079      0.0293      0.0032      0.0091
         8         0.0865     -0.0035      0.0199      0.0079      0.0225
         9         0.0752     -0.2321     -0.0003      0.0595      0.1675
        10        -0.0483      0.0048      0.0409      0.0040      0.0113
        11         0.3998      0.0976     -0.0015      0.1694      0.4456
        12         0.1276      0.0203      0.0274      0.0174      0.0455
        13         0.0004     -0.0036      0.0162      0.0003      0.0007
        14        -0.0151     -0.0145     -0.0016      0.0004      0.0011
        15        -0.0017     -0.0158      0.0042      0.0003      0.0007
 Ground to excited state transition magnetic dipole moments (Au):
       state          X           Y           Z
         1        -0.5773     -0.0993     -0.0022
         2         0.0041     -0.0216     -0.1199
         3         0.1935     -1.1178     -0.0031
         4         0.0057     -0.0080     -0.6125
         5        -0.0359     -0.4776      0.0455
         6        -0.0404     -0.3116     -0.1512
         7        -0.0119      0.1522     -0.1938
         8        -0.0511      0.0949      0.1778
         9         0.0052      0.0093     -1.0614
        10        -0.1310      0.3413     -0.0316
        11         0.1102      0.0473      0.4555
        12        -0.3530      0.1316      0.1760
        13        -0.1892      0.0515      0.0015
        14        -0.1318     -0.0882     -0.0916
        15         0.2869     -0.0821     -0.1557
 <0|del|b> * <b|rxdel|0> + <0|del|b> * <b|delr+rdel|0>
 Rotatory Strengths (R) in cgs (10**-40 erg-esu-cm/Gauss)
       state          XX          YY          ZZ    R(velocity)
         1         0.0799      2.5416      2.3576      1.6597
 Total R(velocity) tensor for State=          1
                 1             2             3 
      1   0.799407D-01 -0.437001D+00 -0.308760D-02
      2  -0.465049D+00  0.254160D+01 -0.748532D-03
      3   0.138722D-01  0.270420D-02  0.235764D+01
 R(velocity) tensor in inp. orien. for State=          1
                 1             2             3 
      1   0.799407D-01 -0.437001D+00 -0.308760D-02
      2  -0.465049D+00  0.254160D+01 -0.748532D-03
      3   0.138722D-01  0.270420D-02  0.235764D+01
         2         3.8885     -3.9628      0.8376      0.2544
 Total R(velocity) tensor for State=          2
                 1             2             3 
      1   0.388852D+01 -0.239042D+02  0.247198D+02
      2   0.781248D+00 -0.396276D+01 -0.126956D+02
      3   0.313178D+01 -0.183454D+02  0.837550D+00
 R(velocity) tensor in inp. orien. for State=          2
                 1             2             3 
      1   0.388852D+01 -0.239042D+02  0.247198D+02
      2   0.781248D+00 -0.396276D+01 -0.126956D+02
      3   0.313178D+01 -0.183454D+02  0.837550D+00
         3        -0.4704      0.5724      0.2219      0.1080
 Total R(velocity) tensor for State=          3
                 1             2             3 
      1  -0.470424D+00  0.358801D+01  0.133442D-01
      2  -0.694663D-01  0.572417D+00  0.141755D-02
      3  -0.407773D+01  0.229233D+02  0.221865D+00
 R(velocity) tensor in inp. orien. for State=          3
                 1             2             3 
      1  -0.470424D+00  0.358801D+01  0.133442D-01
      2  -0.694663D-01  0.572417D+00  0.141755D-02
      3  -0.407773D+01  0.229233D+02  0.221865D+00
         4         1.6413      1.1549     -0.4181      0.7927
 Total R(velocity) tensor for State=          4
                 1             2             3 
      1   0.164133D+01 -0.106896D+01 -0.143953D+02
      2   0.171270D+00  0.115492D+01 -0.348129D+02
      3  -0.838743D-01  0.984895D-01 -0.418088D+00
 R(velocity) tensor in inp. orien. for State=          4
                 1             2             3 
      1   0.164133D+01 -0.106896D+01 -0.143953D+02
      2   0.171270D+00  0.115492D+01 -0.348129D+02
      3  -0.838743D-01  0.984895D-01 -0.418088D+00
         5       110.0396      7.9984     10.5746     42.8709
 Total R(velocity) tensor for State=          5
                 1             2             3 
      1   0.110040D+03  0.371729D+02  0.249100D+02
      2  -0.145861D+02  0.799840D+01 -0.321566D+02
      3  -0.325794D+01 -0.616796D+01  0.105746D+02
 R(velocity) tensor in inp. orien. for State=          5
                 1             2             3 
      1   0.110040D+03  0.371729D+02  0.249100D+02
      2  -0.145861D+02  0.799840D+01 -0.321566D+02
      3  -0.325794D+01 -0.616796D+01  0.105746D+02
         6      -109.5256     -6.1499     -8.7730    -41.4828
 Total R(velocity) tensor for State=          6
                 1             2             3 
      1  -0.109526D+03 -0.414520D+02  0.159496D+02
      2   0.178293D+02 -0.614985D+01 -0.723483D+02
      3  -0.367053D+01 -0.311022D+01 -0.877303D+01
 R(velocity) tensor in inp. orien. for State=          6
                 1             2             3 
      1  -0.109526D+03 -0.414520D+02  0.159496D+02
      2   0.178293D+02 -0.614985D+01 -0.723483D+02
      3  -0.367053D+01 -0.311022D+01 -0.877303D+01
         7       -22.5073      8.9997      1.5225     -3.9950
 Total R(velocity) tensor for State=          7
                 1             2             3 
      1  -0.225073D+02  0.455607D+02 -0.485861D+02
      2   0.778273D+01  0.899971D+01  0.101343D+02
      3   0.548376D+00 -0.236787D+01  0.152250D+01
 R(velocity) tensor in inp. orien. for State=          7
                 1             2             3 
      1  -0.225073D+02  0.455607D+02 -0.485861D+02
      2   0.778273D+01  0.899971D+01  0.101343D+02
      3   0.548376D+00 -0.236787D+01  0.152250D+01
         8        19.2141    -18.4912     -4.3845     -1.2205
 Total R(velocity) tensor for State=          8
                 1             2             3 
      1   0.192141D+02 -0.563481D+02 -0.932937D+02
      2  -0.103566D+02 -0.184912D+02  0.417404D+02
      3   0.839154D+00 -0.423334D+01 -0.438448D+01
 R(velocity) tensor in inp. orien. for State=          8
                 1             2             3 
      1   0.192141D+02 -0.563481D+02 -0.932937D+02
      2  -0.103566D+02 -0.184912D+02  0.417404D+02
      3   0.839154D+00 -0.423334D+01 -0.438448D+01
         9        -5.5523      0.1711      0.9405     -1.4802
 Total R(velocity) tensor for State=          9
                 1             2             3 
      1  -0.555227D+01 -0.190872D+01  0.933593D+02
      2   0.754084D+00  0.171126D+00  0.627642D+02
      3  -0.363224D+01 -0.117844D+01  0.940526D+00
 R(velocity) tensor in inp. orien. for State=          9
                 1             2             3 
      1  -0.555227D+01 -0.190872D+01  0.933593D+02
      2   0.754084D+00  0.171126D+00  0.627642D+02
      3  -0.363224D+01 -0.117844D+01  0.940526D+00
        10        -2.8085     22.4440      0.2253      6.6203
 Total R(velocity) tensor for State=         10
                 1             2             3 
      1  -0.280849D+01  0.650586D+02 -0.109709D+02
      2   0.832195D+01  0.224440D+02  0.719249D+01
      3   0.134669D+00 -0.562998D+00  0.225338D+00
 R(velocity) tensor in inp. orien. for State=         10
                 1             2             3 
      1  -0.280849D+01  0.650586D+02 -0.109709D+02
      2   0.832195D+01  0.224440D+02  0.719249D+01
      3   0.134669D+00 -0.562998D+00  0.225338D+00
        11        10.7669    106.2951     16.8058     44.6226
 Total R(velocity) tensor for State=         11
                 1             2             3 
      1   0.107669D+02 -0.471382D+02 -0.199309D+03
      2  -0.262815D+02  0.106295D+03 -0.873808D+02
      3  -0.271791D+01  0.113873D+02  0.168058D+02
 R(velocity) tensor in inp. orien. for State=         11
                 1             2             3 
      1   0.107669D+02 -0.471382D+02 -0.199309D+03
      2  -0.262815D+02  0.106295D+03 -0.873808D+02
      3  -0.271791D+01  0.113873D+02  0.168058D+02
        12        10.3405   -104.4823     -9.6532    -34.5983
 Total R(velocity) tensor for State=         12
                 1             2             3 
      1   0.103405D+02 -0.337674D+02 -0.230920D+02
      2   0.179766D+02 -0.104482D+03 -0.622738D+01
      3   0.139183D+01  0.428892D+01 -0.965319D+01
 R(velocity) tensor in inp. orien. for State=         12
                 1             2             3 
      1   0.103405D+02 -0.337674D+02 -0.230920D+02
      2   0.179766D+02 -0.104482D+03 -0.622738D+01
      3   0.139183D+01  0.428892D+01 -0.965319D+01
        13         0.5639     -0.6259     -0.5983     -0.2201
 Total R(velocity) tensor for State=         13
                 1             2             3 
      1   0.563915D+00 -0.105065D+01 -0.249439D+00
      2  -0.178666D+01 -0.625921D+00 -0.918618D-01
      3  -0.716221D+00 -0.276802D+01 -0.598306D+00
 R(velocity) tensor in inp. orien. for State=         13
                 1             2             3 
      1   0.563915D+00 -0.105065D+01 -0.249439D+00
      2  -0.178666D+01 -0.625921D+00 -0.918618D-01
      3  -0.716221D+00 -0.276802D+01 -0.598306D+00
        14         1.6086      2.1675      5.1592      2.9784
 Total R(velocity) tensor for State=         14
                 1             2             3 
      1   0.160862D+01 -0.153395D+01 -0.124997D+01
      2  -0.196086D+01  0.216750D+01 -0.116008D+01
      3  -0.144743D+00 -0.421717D+00  0.515923D+01
 R(velocity) tensor in inp. orien. for State=         14
                 1             2             3 
      1   0.160862D+01 -0.153395D+01 -0.124997D+01
      2  -0.196086D+01  0.216750D+01 -0.116008D+01
      3  -0.144743D+00 -0.421717D+00  0.515923D+01
        15        -0.9230     -2.2303      3.5413      0.1293
 Total R(velocity) tensor for State=         15
                 1             2             3 
      1  -0.922976D+00 -0.113810D+01 -0.464132D+01
      2   0.112358D+02 -0.223030D+01 -0.378287D+01
      3   0.241321D+00  0.918666D+00  0.354130D+01
 R(velocity) tensor in inp. orien. for State=         15
                 1             2             3 
      1  -0.922976D+00 -0.113810D+01 -0.464132D+01
      2   0.112358D+02 -0.223030D+01 -0.378287D+01
      3   0.241321D+00  0.918666D+00  0.354130D+01
 1/2[<0|r|b>*<b|rxdel|0> + (<0|rxdel|b>*<b|r|0>)*]
 Rotatory Strengths (R) in cgs (10**-40 erg-esu-cm/Gauss)
       state          XX          YY          ZZ     R(length)     R(au)
         1         4.7912      0.1514     -0.0001      1.6475      0.0035
         2        -5.1472      4.6731      1.2136      0.2465      0.0005
         3         1.1157     -0.7332     -0.1404      0.0807      0.0002
         4        -0.5211      0.7430      1.8840      0.7020      0.0015
         5        -4.5611    139.1698     -5.2638     43.1150      0.0915
         6         7.6642   -144.9691     11.5996    -41.9018     -0.0889
         7         1.7246      3.7484    -16.1423     -3.5564     -0.0075
         8       -13.3803     -1.0259     10.1519     -1.4181     -0.0030
         9         1.1700     -6.4626      0.3802     -1.6375     -0.0035
        10        18.7624      5.0252     -3.7904      6.6657      0.0141
        11       123.0046     12.9663     -2.4976     44.4911      0.0944
        12      -124.5507      7.4804     13.2943    -34.5920     -0.0734
        13        -0.3334     -0.5395      0.0478     -0.2750     -0.0006
        14         5.2121      3.3783      0.3346      2.9750      0.0063
        15        -1.2457      3.4731     -2.1156      0.0372      0.0001
  1/2[<0|del|b>*<b|r|0> + (<0|r|b>*<b|del|0>)*] (Au)
       state          X           Y           Z        Dip. S.   Osc.(frdel)
         1         0.0000      0.0000      0.0000      0.0000      0.0000
         2        -0.5161     -0.0151      0.0000      0.5312      0.3541
         3         0.0000      0.0000     -0.0007      0.0007      0.0005
         4        -0.0029     -0.0031      0.0000      0.0060      0.0040
         5        -0.0066     -0.0344     -0.0061      0.0471      0.0314
         6        -0.0146     -0.0885     -0.0027      0.1058      0.0705
         7        -0.0097     -0.0003     -0.0035      0.0134      0.0090
         8        -0.0320     -0.0001     -0.0016      0.0337      0.0225
         9        -0.0240     -0.2273      0.0000      0.2513      0.1675
        10        -0.0098     -0.0001     -0.0069      0.0168      0.0112
        11        -0.6314     -0.0378      0.0000      0.6692      0.4462
        12        -0.0637     -0.0016     -0.0029      0.0682      0.0455
        13         0.0000     -0.0001     -0.0008      0.0008      0.0005
        14        -0.0008     -0.0008      0.0000      0.0016      0.0011
        15         0.0000     -0.0009     -0.0001      0.0010      0.0007
 Ground to excited state transition densities written to RWF  633

 Excitation energies and oscillator strengths:
 
 Excited State   1:      Singlet-A      4.0912 eV  303.05 nm  f=0.0000  <S**2>=0.000
      38 -> 41         0.67484
      38 -> 46        -0.18750
 This state for optimization and/or second-order correction.
 Copying the excited state density for this state as the 1-particle RhoCI density.
 
 Excited State   2:      Singlet-A      4.3912 eV  282.35 nm  f=0.3544  <S**2>=0.000
      40 -> 41         0.68850
 
 Excited State   3:      Singlet-A      4.6435 eV  267.01 nm  f=0.0005  <S**2>=0.000
      36 -> 41         0.67561
      36 -> 46        -0.18013
 
 Excited State   4:      Singlet-A      4.8286 eV  256.77 nm  f=0.0040  <S**2>=0.000
      39 -> 41         0.49812
      39 -> 46         0.11135
      40 -> 42         0.20236
      40 -> 43        -0.43547
 
 Excited State   5:      Singlet-A      5.5075 eV  225.12 nm  f=0.0309  <S**2>=0.000
      39 -> 41        -0.27090
      40 -> 42         0.62178
      40 -> 44         0.11354
 
 Excited State   6:      Singlet-A      5.5579 eV  223.08 nm  f=0.0704  <S**2>=0.000
      39 -> 41         0.41345
      40 -> 42         0.16521
      40 -> 43         0.52223
 
 Excited State   7:      Singlet-A      6.2933 eV  197.01 nm  f=0.0088  <S**2>=0.000
      39 -> 42         0.19073
      39 -> 43        -0.10417
      40 -> 44         0.56099
      40 -> 46        -0.27509
      40 -> 47         0.11814
 
 Excited State   8:      Singlet-A      6.3561 eV  195.06 nm  f=0.0224  <S**2>=0.000
      35 -> 41         0.11233
      39 -> 43         0.31595
      40 -> 44         0.30586
      40 -> 45         0.19122
      40 -> 46         0.46545
 
 Excited State   9:      Singlet-A      6.4475 eV  192.30 nm  f=0.1675  <S**2>=0.000
      37 -> 41         0.67675
 
 Excited State  10:      Singlet-A      6.4709 eV  191.60 nm  f=0.0111  <S**2>=0.000
      39 -> 43        -0.12958
      40 -> 45         0.61246
      40 -> 46        -0.13058
      40 -> 47        -0.19170
      40 -> 49         0.16782
 
 Excited State  11:      Singlet-A      6.8978 eV  179.74 nm  f=0.4468  <S**2>=0.000
      35 -> 41        -0.13932
      39 -> 42        -0.39229
      39 -> 43         0.42235
      40 -> 46        -0.34352
 
 Excited State  12:      Singlet-A      6.9610 eV  178.11 nm  f=0.0455  <S**2>=0.000
      39 -> 42         0.48108
      39 -> 43         0.39672
      39 -> 45         0.17853
      39 -> 47        -0.12125
      40 -> 44        -0.12779
      40 -> 47        -0.11767
 
 Excited State  13:      Singlet-A      7.1139 eV  174.28 nm  f=0.0004  <S**2>=0.000
      39 -> 44         0.16627
      40 -> 44        -0.14010
      40 -> 45         0.19950
      40 -> 47         0.57728
      40 -> 49        -0.12865
 
 Excited State  14:      Singlet-A      7.3627 eV  168.39 nm  f=0.0011  <S**2>=0.000
      34 -> 41         0.61828
      34 -> 46         0.11415
      40 -> 48         0.22248
 
 Excited State  15:      Singlet-A      7.3803 eV  167.99 nm  f=0.0007  <S**2>=0.000
      34 -> 41        -0.24607
      39 -> 45        -0.16894
      40 -> 44        -0.10785
      40 -> 48         0.53984
      40 -> 49         0.14111
      40 -> 50        -0.13011
      40 -> 52        -0.15663
 SavETr:  write IOETrn=   770 NScale= 10 NData=  16 NLR=1 LETran=     280.

 **********************************************************************

            Population analysis using the SCF density.

 **********************************************************************

 Orbital symmetries:
       Occupied  (A) (A) (A) (A) (A) (A) (A) (A) (A) (A) (A) (A)
                 (A) (A) (A) (A) (A) (A) (A) (A) (A) (A) (A) (A)
                 (A) (A) (A) (A) (A) (A) (A) (A) (A) (A) (A) (A)
                 (A) (A) (A) (A)
       Virtual   (A) (A) (A) (A) (A) (A) (A) (A) (A) (A) (A) (A)
                 (A) (A) (A) (A) (A) (A) (A) (A) (A) (A) (A) (A)
                 (A) (A) (A) (A) (A) (A) (A) (A) (A) (A) (A) (A)
                 (A) (A) (A) (A) (A) (A) (A) (A) (A) (A) (A) (A)
                 (A) (A) (A) (A) (A) (A) (A) (A) (A) (A) (A) (A)
                 (A) (A) (A) (A) (A) (A) (A) (A) (A) (A) (A) (A)
                 (A) (A) (A) (A) (A) (A) (A) (A) (A) (A) (A) (A)
                 (A) (A) (A) (A) (A) (A) (A) (A) (A) (A) (A) (A)
                 (A) (A) (A) (A) (A) (A) (A) (A) (A) (A) (A) (A)
                 (A) (A) (A) (A) (A) (A) (A) (A) (A) (A) (A) (A)
                 (A) (A) (A) (A) (A) (A) (A) (A) (A) (A) (A) (A)
                 (A) (A) (A) (A) (A) (A) (A) (A) (A) (A) (A) (A)
                 (A) (A) (A) (A) (A) (A) (A) (A) (A) (A) (A) (A)
                 (A) (A) (A) (A) (A) (A) (A) (A) (A) (A) (A) (A)
                 (A) (A) (A) (A) (A) (A) (A) (A) (A) (A) (A) (A)
                 (A) (A) (A) (A) (A) (A) (A) (A) (A) (A) (A) (A)
                 (A) (A) (A) (A) (A) (A) (A) (A) (A) (A) (A) (A)
                 (A) (A) (A) (A) (A) (A) (A) (A) (A) (A) (A) (A)
                 (A) (A) (A) (A) (A) (A) (A) (A) (A) (A) (A) (A)
                 (A) (A) (A) (A) (A) (A) (A) (A) (A) (A) (A) (A)
                 (A) (A) (A) (A) (A) (A) (A) (A) (A) (A) (A) (A)
                 (A) (A) (A) (A) (A) (A) (A) (A) (A) (A) (A) (A)
                 (A) (A) (A) (A) (A) (A) (A) (A) (A) (A) (A) (A)
                 (A) (A) (A) (A) (A) (A) (A) (A) (A) (A) (A) (A)
                 (A) (A) (A) (A) (A) (A) (A) (A) (A) (A) (A) (A)
                 (A) (A) (A) (A) (A) (A) (A) (A) (A) (A) (A) (A)
                 (A) (A) (A) (A) (A) (A) (A) (A) (A) (A) (A) (A)
                 (A) (A) (A) (A) (A) (A) (A) (A) (A) (A) (A) (A)
                 (A) (A) (A) (A) (A) (A) (A) (A) (A) (A) (A) (A)
                 (A) (A) (A) (A) (A) (A) (A) (A) (A) (A) (A) (A)
                 (A) (A) (A) (A) (A) (A) (A) (A) (A) (A) (A) (A)
                 (A) (A) (A) (A) (A) (A) (A) (A) (A) (A) (A) (A)
                 (A) (A) (A) (A) (A) (A) (A) (A) (A) (A) (A) (A)
                 (A) (A) (A) (A) (A) (A) (A) (A) (A) (A) (A) (A)
                 (A) (A) (A) (A) (A) (A) (A) (A) (A) (A) (A) (A)
                 (A) (A) (A) (A) (A) (A) (A) (A) (A) (A) (A) (A)
                 (A) (A) (A) (A) (A) (A) (A) (A) (A) (A)
 The electronic state is 1-A.
 Alpha  occ. eigenvalues --  -19.22243 -19.22241 -14.62434 -14.42291 -10.31740
 Alpha  occ. eigenvalues --  -10.29614 -10.27349 -10.27165 -10.27034 -10.26364
 Alpha  occ. eigenvalues --  -10.26151  -1.31473  -1.13437  -1.03892  -0.96647
 Alpha  occ. eigenvalues --   -0.89000  -0.86873  -0.79589  -0.76921  -0.71139
 Alpha  occ. eigenvalues --   -0.66266  -0.63130  -0.62369  -0.61154  -0.60842
 Alpha  occ. eigenvalues --   -0.57879  -0.53803  -0.52480  -0.52200  -0.50560
 Alpha  occ. eigenvalues --   -0.49213  -0.46825  -0.46200  -0.42931  -0.41094
 Alpha  occ. eigenvalues --   -0.37601  -0.37343  -0.35852  -0.32986  -0.28756
 Alpha virt. eigenvalues --   -0.03679   0.01373   0.01627   0.03438   0.04285
 Alpha virt. eigenvalues --    0.05610   0.06581   0.06824   0.07205   0.09310
 Alpha virt. eigenvalues --    0.09859   0.10181   0.10496   0.10727   0.12142
 Alpha virt. eigenvalues --    0.12607   0.13148   0.14499   0.14706   0.15582
 Alpha virt. eigenvalues --    0.15721   0.16742   0.18267   0.18722   0.18837
 Alpha virt. eigenvalues --    0.19978   0.20675   0.21069   0.21137   0.21331
 Alpha virt. eigenvalues --    0.22585   0.23419   0.23876   0.24297   0.24500
 Alpha virt. eigenvalues --    0.25202   0.26035   0.26248   0.26695   0.26950
 Alpha virt. eigenvalues --    0.27140   0.27938   0.28217   0.28716   0.28966
 Alpha virt. eigenvalues --    0.29124   0.30277   0.30556   0.30918   0.31514
 Alpha virt. eigenvalues --    0.31939   0.32457   0.32728   0.33089   0.34139
 Alpha virt. eigenvalues --    0.35726   0.36009   0.36402   0.36752   0.36960
 Alpha virt. eigenvalues --    0.37336   0.37693   0.38754   0.39050   0.40233
 Alpha virt. eigenvalues --    0.40904   0.41111   0.41441   0.41599   0.42159
 Alpha virt. eigenvalues --    0.42682   0.43242   0.43652   0.44109   0.44992
 Alpha virt. eigenvalues --    0.45378   0.45677   0.46146   0.47198   0.47802
 Alpha virt. eigenvalues --    0.48164   0.48736   0.49318   0.49447   0.50796
 Alpha virt. eigenvalues --    0.51083   0.51696   0.51904   0.52959   0.53685
 Alpha virt. eigenvalues --    0.53802   0.54316   0.54689   0.56247   0.56574
 Alpha virt. eigenvalues --    0.56953   0.57523   0.58271   0.58937   0.59792
 Alpha virt. eigenvalues --    0.60331   0.61186   0.62484   0.62805   0.63868
 Alpha virt. eigenvalues --    0.64108   0.64260   0.64715   0.64972   0.66137
 Alpha virt. eigenvalues --    0.66761   0.67067   0.67399   0.68356   0.68505
 Alpha virt. eigenvalues --    0.69737   0.70542   0.70707   0.70922   0.72062
 Alpha virt. eigenvalues --    0.72586   0.72750   0.73756   0.73913   0.74508
 Alpha virt. eigenvalues --    0.74618   0.75156   0.76425   0.77196   0.77958
 Alpha virt. eigenvalues --    0.77976   0.78762   0.79026   0.79788   0.80471
 Alpha virt. eigenvalues --    0.81370   0.82254   0.82713   0.83059   0.83481
 Alpha virt. eigenvalues --    0.83631   0.85523   0.86078   0.86769   0.86888
 Alpha virt. eigenvalues --    0.88888   0.89928   0.90310   0.91082   0.93154
 Alpha virt. eigenvalues --    0.93527   0.95065   0.96714   0.98113   0.99527
 Alpha virt. eigenvalues --    0.99717   1.00273   1.00831   1.02304   1.03474
 Alpha virt. eigenvalues --    1.03831   1.04673   1.05206   1.05640   1.06842
 Alpha virt. eigenvalues --    1.08120   1.09103   1.10144   1.11616   1.14234
 Alpha virt. eigenvalues --    1.15028   1.16367   1.17400   1.18288   1.21384
 Alpha virt. eigenvalues --    1.22464   1.24066   1.26002   1.26704   1.31035
 Alpha virt. eigenvalues --    1.31128   1.32954   1.35527   1.35910   1.37587
 Alpha virt. eigenvalues --    1.40121   1.42055   1.42797   1.43785   1.44182
 Alpha virt. eigenvalues --    1.46514   1.48658   1.49859   1.51791   1.52723
 Alpha virt. eigenvalues --    1.52947   1.54830   1.55949   1.57886   1.59894
 Alpha virt. eigenvalues --    1.62905   1.63577   1.65430   1.66696   1.68965
 Alpha virt. eigenvalues --    1.70896   1.72437   1.74196   1.74804   1.76897
 Alpha virt. eigenvalues --    1.79223   1.80703   1.81107   1.81313   1.84973
 Alpha virt. eigenvalues --    1.85158   1.85226   1.87300   1.88512   1.91432
 Alpha virt. eigenvalues --    1.91872   1.92257   1.93555   1.95036   1.96326
 Alpha virt. eigenvalues --    1.97778   1.98369   1.99420   2.00298   2.01891
 Alpha virt. eigenvalues --    2.02930   2.05407   2.06094   2.07472   2.10262
 Alpha virt. eigenvalues --    2.12119   2.13309   2.19788   2.21496   2.21963
 Alpha virt. eigenvalues --    2.22582   2.26184   2.27629   2.29221   2.32253
 Alpha virt. eigenvalues --    2.33376   2.35285   2.35793   2.36434   2.37836
 Alpha virt. eigenvalues --    2.39722   2.42913   2.43391   2.44279   2.44446
 Alpha virt. eigenvalues --    2.46752   2.48970   2.51865   2.53711   2.58290
 Alpha virt. eigenvalues --    2.59977   2.60645   2.62150   2.63301   2.66009
 Alpha virt. eigenvalues --    2.66974   2.68194   2.70879   2.71908   2.72973
 Alpha virt. eigenvalues --    2.74695   2.76068   2.78314   2.81800   2.83231
 Alpha virt. eigenvalues --    2.86578   2.87590   2.88073   2.90125   2.90995
 Alpha virt. eigenvalues --    2.92243   2.93304   2.94031   2.94775   2.95363
 Alpha virt. eigenvalues --    2.99273   3.00532   3.01347   3.02867   3.04433
 Alpha virt. eigenvalues --    3.06087   3.09470   3.10711   3.12097   3.13586
 Alpha virt. eigenvalues --    3.14603   3.15305   3.17075   3.17556   3.18364
 Alpha virt. eigenvalues --    3.22483   3.24321   3.25975   3.27894   3.28481
 Alpha virt. eigenvalues --    3.30227   3.31492   3.31999   3.33327   3.34844
 Alpha virt. eigenvalues --    3.37883   3.38239   3.40320   3.41179   3.41434
 Alpha virt. eigenvalues --    3.44362   3.44585   3.45326   3.46880   3.48195
 Alpha virt. eigenvalues --    3.49760   3.50619   3.51336   3.53509   3.54581
 Alpha virt. eigenvalues --    3.57500   3.57933   3.59120   3.61096   3.62669
 Alpha virt. eigenvalues --    3.63614   3.64916   3.65323   3.67081   3.69972
 Alpha virt. eigenvalues --    3.71071   3.73929   3.76928   3.81767   3.83352
 Alpha virt. eigenvalues --    3.85844   3.86446   3.92129   3.92931   3.94948
 Alpha virt. eigenvalues --    3.96954   4.00870   4.02981   4.08246   4.11898
 Alpha virt. eigenvalues --    4.13674   4.14829   4.17649   4.21673   4.23125
 Alpha virt. eigenvalues --    4.24639   4.26764   4.29047   4.30359   4.31374
 Alpha virt. eigenvalues --    4.33547   4.34436   4.34756   4.37742   4.40845
 Alpha virt. eigenvalues --    4.46356   4.47114   4.52143   4.53292   4.55804
 Alpha virt. eigenvalues --    4.57239   4.67622   4.68003   4.74544   4.76591
 Alpha virt. eigenvalues --    4.77713   4.78796   4.79915   4.83300   4.85605
 Alpha virt. eigenvalues --    4.87913   4.91025   4.92016   4.94025   4.96555
 Alpha virt. eigenvalues --    4.98554   5.01040   5.05033   5.07454   5.15548
 Alpha virt. eigenvalues --    5.16360   5.19928   5.21765   5.24896   5.26237
 Alpha virt. eigenvalues --    5.26731   5.30900   5.34828   5.38862   5.42147
 Alpha virt. eigenvalues --    5.43805   5.46794   5.50617   5.53848   5.57373
 Alpha virt. eigenvalues --    5.59020   5.66863   5.72818   5.73223   5.76310
 Alpha virt. eigenvalues --    5.78933   5.81736   5.99020   6.10111   6.12311
 Alpha virt. eigenvalues --    6.18142   6.45991   6.46807   6.54160   6.60591
 Alpha virt. eigenvalues --    6.62591   6.64946   6.95742   6.96925   7.00164
 Alpha virt. eigenvalues --    7.14029   7.33760   7.47689   7.58343   7.80527
 Alpha virt. eigenvalues --    7.83806  22.67558  22.73273  23.00110  23.02149
 Alpha virt. eigenvalues --   23.10517  23.26220  23.59851  32.49280  32.89379
 Alpha virt. eigenvalues --   44.48643  44.67793
          Condensed to atoms (all electrons):
              1          2          3          4          5          6
     1  C    6.059841   0.181733  -0.155974  -0.054383   0.005614   0.327860
     2  C    0.181733   6.207959   0.274764  -0.115947   0.156250  -0.618229
     3  C   -0.155974   0.274764   6.109363   0.301782  -0.293115   0.056549
     4  C   -0.054383  -0.115947   0.301782   6.605349  -0.313221  -0.408694
     5  C    0.005614   0.156250  -0.293115  -0.313221   6.896044  -0.373171
     6  C    0.327860  -0.618229   0.056549  -0.408694  -0.373171   7.600693
     7  H    0.291462  -0.038343   0.002620   0.002354   0.026813  -0.162924
     8  H   -0.000218  -0.091977   0.326428  -0.057195   0.010444  -0.003085
     9  H   -0.007479   0.023048  -0.060050   0.489882  -0.256269  -0.019492
    10  N   -0.223286   0.558258  -0.237395  -0.007052   0.020766  -0.012741
    11  O    0.028954  -0.106598   0.046101  -0.002601  -0.006103  -0.007080
    12  O    0.004571  -0.073487   0.023385   0.000083  -0.008829   0.008357
    13  N   -0.000847   0.000106  -0.006155  -0.086625   0.146894   0.013021
    14  H   -0.001338   0.003039  -0.004450   0.039776  -0.107654   0.004161
    15  H    0.000057   0.001734  -0.001992  -0.007900   0.008984  -0.064963
    16  C   -0.200328  -0.031836  -0.012782   0.061669  -0.322620  -0.721647
    17  H   -0.030080  -0.013077   0.001279   0.002646  -0.018878  -0.009252
    18  H    0.006320   0.002110   0.000474  -0.000811   0.003648  -0.037304
    19  H    0.012645   0.001885   0.001224  -0.000842   0.012870  -0.044926
              7          8          9         10         11         12
     1  C    0.291462  -0.000218  -0.007479  -0.223286   0.028954   0.004571
     2  C   -0.038343  -0.091977   0.023048   0.558258  -0.106598  -0.073487
     3  C    0.002620   0.326428  -0.060050  -0.237395   0.046101   0.023385
     4  C    0.002354  -0.057195   0.489882  -0.007052  -0.002601   0.000083
     5  C    0.026813   0.010444  -0.256269   0.020766  -0.006103  -0.008829
     6  C   -0.162924  -0.003085  -0.019492  -0.012741  -0.007080   0.008357
     7  H    0.432048   0.001241  -0.000406   0.007480  -0.003150  -0.008139
     8  H    0.001241   0.382733  -0.008615   0.003869  -0.006031  -0.002091
     9  H   -0.000406  -0.008615   0.551829  -0.000229  -0.000148   0.000003
    10  N    0.007480   0.003869  -0.000229   5.820987   0.082421   0.093470
    11  O   -0.003150  -0.006031  -0.000148   0.082421   8.673398  -0.108582
    12  O   -0.008139  -0.002091   0.000003   0.093470  -0.108582   8.667597
    13  N    0.000644   0.000324   0.006202  -0.000465   0.000170   0.000154
    14  H   -0.000149  -0.000787   0.023901  -0.000024   0.000011  -0.000007
    15  H   -0.000390   0.000009  -0.001956  -0.000010   0.000004   0.000049
    16  C    0.010299  -0.000655   0.001066   0.001248   0.000634  -0.004981
    17  H   -0.004090  -0.000039  -0.000139  -0.001054   0.000074   0.001378
    18  H   -0.001587  -0.000023   0.000525   0.000267  -0.000028  -0.000134
    19  H    0.000830   0.000039   0.000065   0.000234  -0.000023  -0.000110
             13         14         15         16         17         18
     1  C   -0.000847  -0.001338   0.000057  -0.200328  -0.030080   0.006320
     2  C    0.000106   0.003039   0.001734  -0.031836  -0.013077   0.002110
     3  C   -0.006155  -0.004450  -0.001992  -0.012782   0.001279   0.000474
     4  C   -0.086625   0.039776  -0.007900   0.061669   0.002646  -0.000811
     5  C    0.146894  -0.107654   0.008984  -0.322620  -0.018878   0.003648
     6  C    0.013021   0.004161  -0.064963  -0.721647  -0.009252  -0.037304
     7  H    0.000644  -0.000149  -0.000390   0.010299  -0.004090  -0.001587
     8  H    0.000324  -0.000787   0.000009  -0.000655  -0.000039  -0.000023
     9  H    0.006202   0.023901  -0.001956   0.001066  -0.000139   0.000525
    10  N   -0.000465  -0.000024  -0.000010   0.001248  -0.001054   0.000267
    11  O    0.000170   0.000011   0.000004   0.000634   0.000074  -0.000028
    12  O    0.000154  -0.000007   0.000049  -0.004981   0.001378  -0.000134
    13  N    6.588695   0.344103   0.380082   0.009327   0.002937  -0.007657
    14  H    0.344103   0.544050  -0.041762   0.009849   0.000267   0.001172
    15  H    0.380082  -0.041762   0.498749   0.027165   0.001235   0.002581
    16  C    0.009327   0.009849   0.027165   7.513521   0.390911   0.344069
    17  H    0.002937   0.000267   0.001235   0.390911   0.312848   0.015013
    18  H   -0.007657   0.001172   0.002581   0.344069   0.015013   0.300824
    19  H   -0.004480  -0.000659  -0.002926   0.335160   0.013926   0.009756
             19
     1  C    0.012645
     2  C    0.001885
     3  C    0.001224
     4  C   -0.000842
     5  C    0.012870
     6  C   -0.044926
     7  H    0.000830
     8  H    0.000039
     9  H    0.000065
    10  N    0.000234
    11  O   -0.000023
    12  O   -0.000110
    13  N   -0.004480
    14  H   -0.000659
    15  H   -0.002926
    16  C    0.335160
    17  H    0.013926
    18  H    0.009756
    19  H    0.305444
 Mulliken atomic charges:
              1
     1  C   -0.245123
     2  C   -0.321393
     3  C   -0.372055
     4  C   -0.448271
     5  C    0.411530
     6  C    0.472867
     7  H    0.443387
     8  H    0.445630
     9  H    0.258262
    10  N    0.893256
    11  O   -0.591423
    12  O   -0.592688
    13  N   -0.386430
    14  H    0.186499
    15  H    0.201251
    16  C   -1.410068
    17  H    0.334095
    18  H    0.360786
    19  H    0.359888
 Sum of Mulliken atomic charges =   0.00000
 Mulliken charges with hydrogens summed into heavy atoms:
              1
     1  C    0.198264
     2  C   -0.321393
     3  C    0.073575
     4  C   -0.190009
     5  C    0.411530
     6  C    0.472867
    10  N    0.893256
    11  O   -0.591423
    12  O   -0.592688
    13  N    0.001321
    16  C   -0.355299
 Sum of Mulliken charges with hydrogens summed into heavy atoms =   0.00000
 Electronic spatial extent (au):  <R**2>=           1883.1620
 Charge=              0.0000 electrons
 Dipole moment (field-independent basis, Debye):
    X=             -7.1059    Y=             -0.8638    Z=              0.6159  Tot=              7.1847
 Quadrupole moment (field-independent basis, Debye-Ang):
   XX=            -68.8010   YY=            -59.0171   ZZ=            -66.3454
   XY=             -0.1262   XZ=             -2.6285   YZ=             -0.6379
 Traceless Quadrupole moment (field-independent basis, Debye-Ang):
   XX=             -4.0798   YY=              5.7041   ZZ=             -1.6243
   XY=             -0.1262   XZ=             -2.6285   YZ=             -0.6379
 Octapole moment (field-independent basis, Debye-Ang**2):
  XXX=            -87.5469  YYY=            -10.4881  ZZZ=              0.4140  XYY=            -15.0256
  XXY=            -10.2417  XXZ=              9.9997  XZZ=             10.8022  YZZ=              3.0749
  YYZ=              0.7653  XYZ=              2.3278
 Hexadecapole moment (field-independent basis, Debye-Ang**3):
 XXXX=          -1745.2894 YYYY=           -577.1713 ZZZZ=            -77.4068 XXXY=             32.6367
 XXXZ=            -39.3684 YYYX=             23.1224 YYYZ=             -1.9824 ZZZX=             -1.7390
 ZZZY=             -0.4354 XXYY=           -380.7719 XXZZ=           -302.5862 YYZZ=           -124.4745
 XXYZ=             -8.7501 YYXZ=             -3.6479 ZZXY=             -1.6766
 N-N= 5.925899092242D+02 E-N=-2.425906230133D+03  KE= 5.292800410823D+02
 1\1\GINC-DLT04\SP\RTD-CAM-B3LYP-FC\Gen\C7H8N2O2\MATHEUSMAXIMO\11-Mar-2
 023\0\\# td=(nstates=15) cam-b3lyp/gen scf=qc int=ultrafine\\NA+CH3 CA
 M-B3LYP def2-TZVPD Single point\\0,1\C,0,0.07322898,0.95599316,0.00079
 668\C,0,0.95491984,-0.11126307,-0.00045353\C,0,0.49846391,-1.41609707,
 -0.00422268\C,0,-0.85753516,-1.64410247,-0.00468345\C,0,-1.76450132,-0
 .58115732,-0.00246224\C,0,-1.28908437,0.74315837,-0.00141093\H,0,0.470
 68086,1.96038131,0.00221518\H,0,1.20649629,-2.23051334,-0.00521475\H,0
 ,-1.23210351,-2.65991459,-0.00967424\N,0,2.38726429,0.14671878,0.00258
 641\O,0,3.13792663,-0.80982184,0.00098876\O,0,2.75862827,1.30481321,0.
 00685077\N,0,-3.11385774,-0.82973746,-0.04321964\H,0,-3.42845198,-1.76
 063862,0.1659762\H,0,-3.74914747,-0.09745473,0.2174977\C,0,-2.25355507
 ,1.89066663,-0.00799603\H,0,-1.72477735,2.84087412,-0.0321522\H,0,-2.9
 134429,1.85270614,-0.87826716\H,0,-2.88715978,1.89257008,0.88392865\\V
 ersion=EM64L-G09RevA.02\State=1-A\HF=-531.3959077\RMSD=0.000e+00\PG=C0
 1 [X(C7H8N2O2)]\\@


 FIREWORKS ENDED
 AND SPECTATORS GONE AWAY....
 AH, HOW VAST AND DARK
                     SHIKI
 Job cpu time:  0 days 11 hours 20 minutes 48.5 seconds.
 File lengths (MBytes):  RWF=    458 Int=      0 D2E=      0 Chk=    103 Scr=      1
 Normal termination of Gaussian 09 at Sat Mar 11 07:26:34 2023.
