 Entering Gaussian System, Link 0=g09
 Initial command:
 /apps/software//g09/l1.exe /scratch/matheusmaximo/65656.cluster.abaxnet/Gau-5951.inp -scrdir=/scratch/matheusmaximo/65656.cluster.abaxnet/
 Entering Link 1 = /apps/software//g09/l1.exe PID=      5952.
  
 Copyright (c) 1988,1990,1992,1993,1995,1998,2003,2009, Gaussian, Inc.
                  All Rights Reserved.
  
 This is part of the Gaussian(R) 09 program.  It is based on
 the Gaussian(R) 03 system (copyright 2003, Gaussian, Inc.),
 the Gaussian(R) 98 system (copyright 1998, Gaussian, Inc.),
 the Gaussian(R) 94 system (copyright 1995, Gaussian, Inc.),
 the Gaussian 92(TM) system (copyright 1992, Gaussian, Inc.),
 the Gaussian 90(TM) system (copyright 1990, Gaussian, Inc.),
 the Gaussian 88(TM) system (copyright 1988, Gaussian, Inc.),
 the Gaussian 86(TM) system (copyright 1986, Carnegie Mellon
 University), and the Gaussian 82(TM) system (copyright 1983,
 Carnegie Mellon University). Gaussian is a federally registered
 trademark of Gaussian, Inc.
  
 This software contains proprietary and confidential information,
 including trade secrets, belonging to Gaussian, Inc.
  
 This software is provided under written license and may be
 used, copied, transmitted, or stored only in accord with that
 written license.
  
 The following legend is applicable only to US Government
 contracts under FAR:
  
                    RESTRICTED RIGHTS LEGEND
  
 Use, reproduction and disclosure by the US Government is
 subject to restrictions as set forth in subparagraphs (a)
 and (c) of the Commercial Computer Software - Restricted
 Rights clause in FAR 52.227-19.
  
 Gaussian, Inc.
 340 Quinnipiac St., Bldg. 40, Wallingford CT 06492
  
  
 ---------------------------------------------------------------
 Warning -- This program may not be used in any manner that
 competes with the business of Gaussian, Inc. or will provide
 assistance to any competitor of Gaussian, Inc.  The licensee
 of this program is prohibited from giving any competitor of
 Gaussian, Inc. access to this program.  By using this program,
 the user acknowledges that Gaussian, Inc. is engaged in the
 business of creating and licensing software in the field of
 computational chemistry and represents and warrants to the
 licensee that it is not a competitor of Gaussian, Inc. and that
 it will not use this program in any manner prohibited above.
 ---------------------------------------------------------------
  

 Cite this work as:
 Gaussian 09, Revision A.02,
 M. J. Frisch, G. W. Trucks, H. B. Schlegel, G. E. Scuseria, 
 M. A. Robb, J. R. Cheeseman, G. Scalmani, V. Barone, B. Mennucci, 
 G. A. Petersson, H. Nakatsuji, M. Caricato, X. Li, H. P. Hratchian, 
 A. F. Izmaylov, J. Bloino, G. Zheng, J. L. Sonnenberg, M. Hada, 
 M. Ehara, K. Toyota, R. Fukuda, J. Hasegawa, M. Ishida, T. Nakajima, 
 Y. Honda, O. Kitao, H. Nakai, T. Vreven, J. A. Montgomery, Jr., 
 J. E. Peralta, F. Ogliaro, M. Bearpark, J. J. Heyd, E. Brothers, 
 K. N. Kudin, V. N. Staroverov, R. Kobayashi, J. Normand, 
 K. Raghavachari, A. Rendell, J. C. Burant, S. S. Iyengar, J. Tomasi, 
 M. Cossi, N. Rega, J. M. Millam, M. Klene, J. E. Knox, J. B. Cross, 
 V. Bakken, C. Adamo, J. Jaramillo, R. Gomperts, R. E. Stratmann, 
 O. Yazyev, A. J. Austin, R. Cammi, C. Pomelli, J. W. Ochterski, 
 R. L. Martin, K. Morokuma, V. G. Zakrzewski, G. A. Voth, 
 P. Salvador, J. J. Dannenberg, S. Dapprich, A. D. Daniels, 
 O. Farkas, J. B. Foresman, J. V. Ortiz, J. Cioslowski, 
 and D. J. Fox, Gaussian, Inc., Wallingford CT, 2009.
 
 ******************************************
 Gaussian 09:  EM64L-G09RevA.02 11-Jun-2009
                11-Feb-2023 
 ******************************************
 %chk=/home/matheusmaximo/Gaussian/substituent/so3h/so3h_s0.chk
 ---------------------------------------------------
 # opt=tight freq cam-b3lyp/gen scf=qc int=ultrafine
 ---------------------------------------------------
 1/7=10,14=-1,18=20,19=15,26=3,38=1/1,3;
 2/9=110,12=2,17=6,18=5,40=1/2;
 3/5=7,11=2,16=1,25=1,30=1,71=1,74=-40,75=-5/1,2,3;
 4//1;
 5/5=2,8=3,38=5/8;
 6/7=2,8=2,9=2,10=2,28=1/1;
 7//1,2,3,16;
 1/7=10,14=-1,18=20,19=15/3(2);
 2/9=110/2;
 99//99;
 2/9=110/2;
 3/5=7,6=1,11=2,16=1,25=1,30=1,71=1,74=-40,75=-5,82=7/1,2,3;
 4/5=5,16=3/1;
 5/5=2,8=3,38=5/8;
 7//1,2,3,16;
 1/7=10,14=-1,18=20,19=15/3(-5);
 2/9=110/2;
 6/7=2,8=2,9=2,10=2,19=2,28=1/1;
 99/9=1/99;
 ----------------------------
 NA+SO3H CAM-B3LYP def2-TZVPD
 ----------------------------
 Symbolic Z-matrix:
 Charge =  0 Multiplicity = 1
 C                     0.4981   -0.59264   0.04151 
 C                     1.66924   0.12476  -0.00133 
 C                     1.65566   1.51435  -0.00948 
 C                     0.46118   2.18208   0.01389 
 C                    -0.76468   1.49304   0.04386 
 C                    -0.71147   0.08146   0.07062 
 H                     0.51812  -1.67243   0.04794 
 H                     2.59288   2.04964  -0.04054 
 H                     0.44837   3.26407  -0.0016 
 N                     2.9441   -0.58198  -0.0327 
 O                     3.95613   0.08907  -0.07168 
 O                     2.92005  -1.79461  -0.01645 
 N                    -1.92812   2.18417   0.07559 
 H                    -1.89377   3.17793  -0.06521 
 H                    -2.78347   1.70801  -0.16899 
 S                    -2.16726  -0.89288   0.18496 
 O                    -3.24001  -0.22069  -0.49825 
 O                    -1.84994  -2.25591  -0.10039 
 H                    -2.45574  -0.81757   1.50855 
 

 GradGradGradGradGradGradGradGradGradGradGradGradGradGradGradGradGradGrad
 Berny optimization.
 Initialization pass.
                           ----------------------------
                           !    Initial Parameters    !
                           ! (Angstroms and Degrees)  !
 --------------------------                            --------------------------
 ! Name  Definition              Value          Derivative Info.                !
 --------------------------------------------------------------------------------
 ! R1    R(1,2)                  1.3741         estimate D2E/DX2                !
 ! R2    R(1,6)                  1.385          estimate D2E/DX2                !
 ! R3    R(1,7)                  1.08           estimate D2E/DX2                !
 ! R4    R(2,3)                  1.3897         estimate D2E/DX2                !
 ! R5    R(2,10)                 1.458          estimate D2E/DX2                !
 ! R6    R(3,4)                  1.3686         estimate D2E/DX2                !
 ! R7    R(3,8)                  1.0798         estimate D2E/DX2                !
 ! R8    R(4,5)                  1.4066         estimate D2E/DX2                !
 ! R9    R(4,9)                  1.0822         estimate D2E/DX2                !
 ! R10   R(5,6)                  1.4128         estimate D2E/DX2                !
 ! R11   R(5,13)                 1.3536         estimate D2E/DX2                !
 ! R12   R(6,16)                 1.7555         estimate D2E/DX2                !
 ! R13   R(10,11)                1.2149         estimate D2E/DX2                !
 ! R14   R(10,12)                1.213          estimate D2E/DX2                !
 ! R15   R(13,14)                1.0043         estimate D2E/DX2                !
 ! R16   R(13,15)                1.009          estimate D2E/DX2                !
 ! R17   R(16,17)                1.4386         estimate D2E/DX2                !
 ! R18   R(16,18)                1.4283         estimate D2E/DX2                !
 ! R19   R(16,19)                1.3568         estimate D2E/DX2                !
 ! A1    A(2,1,6)              119.3987         estimate D2E/DX2                !
 ! A2    A(2,1,7)              120.4233         estimate D2E/DX2                !
 ! A3    A(6,1,7)              120.1775         estimate D2E/DX2                !
 ! A4    A(1,2,3)              120.9256         estimate D2E/DX2                !
 ! A5    A(1,2,10)             119.5282         estimate D2E/DX2                !
 ! A6    A(3,2,10)             119.5457         estimate D2E/DX2                !
 ! A7    A(2,3,4)              119.7532         estimate D2E/DX2                !
 ! A8    A(2,3,8)              119.1704         estimate D2E/DX2                !
 ! A9    A(4,3,8)              121.0752         estimate D2E/DX2                !
 ! A10   A(3,4,5)              121.4663         estimate D2E/DX2                !
 ! A11   A(3,4,9)              119.8592         estimate D2E/DX2                !
 ! A12   A(5,4,9)              118.6712         estimate D2E/DX2                !
 ! A13   A(4,5,6)              117.1949         estimate D2E/DX2                !
 ! A14   A(4,5,13)             119.9648         estimate D2E/DX2                !
 ! A15   A(6,5,13)             122.8237         estimate D2E/DX2                !
 ! A16   A(1,6,5)              121.2494         estimate D2E/DX2                !
 ! A17   A(1,6,16)             117.094          estimate D2E/DX2                !
 ! A18   A(5,6,16)             121.6371         estimate D2E/DX2                !
 ! A19   A(2,10,11)            117.4727         estimate D2E/DX2                !
 ! A20   A(2,10,12)            117.8376         estimate D2E/DX2                !
 ! A21   A(11,10,12)           124.6896         estimate D2E/DX2                !
 ! A22   A(5,13,14)            118.2005         estimate D2E/DX2                !
 ! A23   A(5,13,15)            118.8143         estimate D2E/DX2                !
 ! A24   A(14,13,15)           117.5135         estimate D2E/DX2                !
 ! A25   A(6,16,17)            109.1548         estimate D2E/DX2                !
 ! A26   A(6,16,18)            109.4158         estimate D2E/DX2                !
 ! A27   A(6,16,19)            102.0672         estimate D2E/DX2                !
 ! A28   A(17,16,18)           121.1126         estimate D2E/DX2                !
 ! A29   A(17,16,19)           106.1901         estimate D2E/DX2                !
 ! A30   A(18,16,19)           107.1644         estimate D2E/DX2                !
 ! D1    D(6,1,2,3)              0.3021         estimate D2E/DX2                !
 ! D2    D(6,1,2,10)          -179.9705         estimate D2E/DX2                !
 ! D3    D(7,1,2,3)           -179.9749         estimate D2E/DX2                !
 ! D4    D(7,1,2,10)            -0.2474         estimate D2E/DX2                !
 ! D5    D(2,1,6,5)              0.6288         estimate D2E/DX2                !
 ! D6    D(2,1,6,16)          -177.793          estimate D2E/DX2                !
 ! D7    D(7,1,6,5)           -179.0949         estimate D2E/DX2                !
 ! D8    D(7,1,6,16)             2.4832         estimate D2E/DX2                !
 ! D9    D(1,2,3,4)             -0.5612         estimate D2E/DX2                !
 ! D10   D(1,2,3,8)            179.8188         estimate D2E/DX2                !
 ! D11   D(10,2,3,4)           179.7114         estimate D2E/DX2                !
 ! D12   D(10,2,3,8)             0.0914         estimate D2E/DX2                !
 ! D13   D(1,2,10,11)          179.9236         estimate D2E/DX2                !
 ! D14   D(1,2,10,12)           -0.1651         estimate D2E/DX2                !
 ! D15   D(3,2,10,11)           -0.3452         estimate D2E/DX2                !
 ! D16   D(3,2,10,12)          179.5661         estimate D2E/DX2                !
 ! D17   D(2,3,4,5)             -0.1146         estimate D2E/DX2                !
 ! D18   D(2,3,4,9)           -179.439          estimate D2E/DX2                !
 ! D19   D(8,3,4,5)            179.4981         estimate D2E/DX2                !
 ! D20   D(8,3,4,9)              0.1737         estimate D2E/DX2                !
 ! D21   D(3,4,5,6)              0.9932         estimate D2E/DX2                !
 ! D22   D(3,4,5,13)           179.5538         estimate D2E/DX2                !
 ! D23   D(9,4,5,6)           -179.6747         estimate D2E/DX2                !
 ! D24   D(9,4,5,13)            -1.114          estimate D2E/DX2                !
 ! D25   D(4,5,6,1)             -1.2527         estimate D2E/DX2                !
 ! D26   D(4,5,6,16)           177.0971         estimate D2E/DX2                !
 ! D27   D(13,5,6,1)          -179.7688         estimate D2E/DX2                !
 ! D28   D(13,5,6,16)           -1.419          estimate D2E/DX2                !
 ! D29   D(4,5,13,14)            9.2516         estimate D2E/DX2                !
 ! D30   D(4,5,13,15)          162.5303         estimate D2E/DX2                !
 ! D31   D(6,5,13,14)         -172.2719         estimate D2E/DX2                !
 ! D32   D(6,5,13,15)          -18.9932         estimate D2E/DX2                !
 ! D33   D(1,6,16,17)         -148.7877         estimate D2E/DX2                !
 ! D34   D(1,6,16,18)          -14.1663         estimate D2E/DX2                !
 ! D35   D(1,6,16,19)           99.1204         estimate D2E/DX2                !
 ! D36   D(5,6,16,17)           32.797          estimate D2E/DX2                !
 ! D37   D(5,6,16,18)          167.4184         estimate D2E/DX2                !
 ! D38   D(5,6,16,19)          -79.295          estimate D2E/DX2                !
 --------------------------------------------------------------------------------
 Trust Radius=3.00D-01 FncErr=1.00D-07 GrdErr=1.00D-06
 Number of steps in this run=  97 maximum allowed number of steps= 114.
 GradGradGradGradGradGradGradGradGradGradGradGradGradGradGradGradGradGrad

                          Input orientation:                          
 ---------------------------------------------------------------------
 Center     Atomic      Atomic             Coordinates (Angstroms)
 Number     Number       Type             X           Y           Z
 ---------------------------------------------------------------------
      1          6           0        0.498095   -0.592642    0.041507
      2          6           0        1.669236    0.124762   -0.001326
      3          6           0        1.655661    1.514350   -0.009485
      4          6           0        0.461176    2.182076    0.013894
      5          6           0       -0.764684    1.493041    0.043864
      6          6           0       -0.711475    0.081462    0.070619
      7          1           0        0.518119   -1.672428    0.047945
      8          1           0        2.592880    2.049643   -0.040539
      9          1           0        0.448371    3.264073   -0.001599
     10          7           0        2.944102   -0.581978   -0.032705
     11          8           0        3.956134    0.089072   -0.071682
     12          8           0        2.920047   -1.794615   -0.016453
     13          7           0       -1.928118    2.184168    0.075592
     14          1           0       -1.893774    3.177935   -0.065209
     15          1           0       -2.783469    1.708010   -0.168986
     16         16           0       -2.167259   -0.892884    0.184961
     17          8           0       -3.240015   -0.220687   -0.498255
     18          8           0       -1.849938   -2.255912   -0.100386
     19          1           0       -2.455743   -0.817571    1.508553
 ---------------------------------------------------------------------
                    Distance matrix (angstroms):
                    1          2          3          4          5
     1  C    0.000000
     2  C    1.374072   0.000000
     3  C    2.404574   1.389679   0.000000
     4  C    2.775101   2.385830   1.368649   0.000000
     5  C    2.438173   2.792525   2.421027   1.406556   0.000000
     6  C    1.385035   2.382191   2.768198   2.406430   1.412835
     7  H    1.079991   2.134804   3.384207   3.855075   3.415523
     8  H    3.372911   2.135375   1.079760   2.136508   3.404433
     9  H    3.857276   3.368350   2.125827   1.082183   2.147120
    10  N    2.447155   1.457995   2.460734   3.715789   4.250489
    11  O    3.526412   2.288259   2.706929   4.074644   4.926520
    12  O    2.704431   2.291018   3.542311   4.675579   4.938579
    13  N    3.687593   4.145844   3.646830   2.390091   1.353603
    14  H    4.466506   4.692652   3.920345   2.558081   2.031159
    15  H    4.013224   4.728780   4.446214   3.284189   2.041325
    16  S    2.686045   3.973538   4.521870   4.048866   2.771239
    17  O    3.795149   4.946414   5.216981   4.442339   3.059088
    18  O    2.880948   4.249942   5.149016   5.005002   3.905539
    19  H    3.305749   4.492569   4.964468   4.443006   3.216197
                    6          7          8          9         10
     6  C    0.000000
     7  H    2.142089   0.000000
     8  H    3.847708   4.262191   0.000000
     9  H    3.388136   4.937242   2.464808   0.000000
    10  N    3.716728   2.661010   2.654967   4.584948   0.000000
    11  O    4.669784   3.864859   2.388152   4.731801   1.214923
    12  O    4.088422   2.405895   3.858229   5.630250   1.212984
    13  N    2.429324   4.567075   4.524490   2.611485   5.603732
    14  H    3.317292   5.418122   4.626415   2.344591   6.127238
    15  H    2.645038   4.730212   5.388723   3.590841   6.169901
    16  S    1.755487   2.799593   5.600736   4.914938   5.125432
    17  O    2.609296   4.065644   6.275872   5.098471   6.212130
    18  O    2.605506   2.443390   6.187085   5.980152   5.078332
    19  H    2.432773   3.421698   6.009093   5.232041   5.620436
                   11         12         13         14         15
    11  O    0.000000
    12  O    2.150535   0.000000
    13  N    6.247843   6.272470   0.000000
    14  H    6.615326   6.921091   1.004280   0.000000
    15  H    6.932004   6.694904   1.009044   1.721338   0.000000
    16  S    6.206936   5.170529   3.088268   4.087658   2.696228
    17  O    7.215433   6.376186   2.798875   3.681103   2.009160
    18  O    6.261809   4.792974   4.444254   5.434138   4.072943
    19  H    6.665682   5.672687   3.367819   4.330889   3.049607
                   16         17         18         19
    16  S    0.000000
    17  O    1.438554   0.000000
    18  O    1.428272   2.496549   0.000000
    19  H    1.356758   2.235762   2.241542   0.000000
 Stoichiometry    C6H6N2O4S
 Framework group  C1[X(C6H6N2O4S)]
 Deg. of freedom    51
 Full point group                 C1      NOp   1
 Largest Abelian subgroup         C1      NOp   1
 Largest concise Abelian subgroup C1      NOp   1
                         Standard orientation:                         
 ---------------------------------------------------------------------
 Center     Atomic      Atomic             Coordinates (Angstroms)
 Number     Number       Type             X           Y           Z
 ---------------------------------------------------------------------
      1          6           0        0.498095   -0.592642    0.041507
      2          6           0        1.669236    0.124762   -0.001326
      3          6           0        1.655661    1.514350   -0.009485
      4          6           0        0.461176    2.182076    0.013894
      5          6           0       -0.764684    1.493041    0.043864
      6          6           0       -0.711475    0.081462    0.070619
      7          1           0        0.518119   -1.672428    0.047945
      8          1           0        2.592880    2.049643   -0.040538
      9          1           0        0.448371    3.264073   -0.001599
     10          7           0        2.944102   -0.581978   -0.032705
     11          8           0        3.956134    0.089072   -0.071682
     12          8           0        2.920047   -1.794615   -0.016453
     13          7           0       -1.928118    2.184168    0.075592
     14          1           0       -1.893774    3.177935   -0.065209
     15          1           0       -2.783469    1.708010   -0.168986
     16         16           0       -2.167259   -0.892884    0.184961
     17          8           0       -3.240015   -0.220687   -0.498255
     18          8           0       -1.849938   -2.255912   -0.100386
     19          1           0       -2.455743   -0.817571    1.508553
 ---------------------------------------------------------------------
 Rotational constants (GHZ):      1.3097669      0.4811061      0.3557328
 General basis read from cards:  (5D, 7F)
 There are   556 symmetry adapted basis functions of A   symmetry.
 Integral buffers will be    131072 words long.
 Raffenetti 2 integral format.
 Two-electron integral symmetry is turned on.
   556 basis functions,   853 primitive gaussians,   634 cartesian basis functions
    52 alpha electrons       52 beta electrons
       nuclear repulsion energy       923.9388987759 Hartrees.
 NAtoms=   19 NActive=   19 NUniq=   19 SFac= 7.50D-01 NAtFMM=   80 NAOKFM=F Big=F
 One-electron integrals computed using PRISM.
 NBasis=   556 RedAO= T  NBF=   556
 NBsUse=   553 1.00D-06 NBFU=   553
 Harris functional with IExCor=20419 diagonalized for initial guess.
 ExpMin= 3.04D-02 ExpMax= 6.07D+04 ExpMxC= 2.07D+03 IAcc=3 IRadAn=         5 AccDes= 0.00D+00
 HarFok:  IExCor=20419 AccDes= 0.00D+00 IRadAn=         5 IDoV= 1
 ScaDFX=  1.000000  1.000000  1.000000  1.000000
 FoFCou: FMM=F IPFlag=           0 FMFlag=      100000 FMFlg1=           0
         NFxFlg=           0 DoJE=T BraDBF=F KetDBF=T FulRan=T
         Omega=  0.000000  0.000000  1.000000  0.000000  0.000000 ICntrl=     500 IOpCl=  0
         NMat0=    1 NMatS0=    1 NMatT0=    0 NMatD0=    1 NMtDS0=    0 NMtDT0=    0
         I1Cent=           4 NGrid=           0.
 Petite list used in FoFCou.
 Initial guess orbital symmetries:
       Occupied  (A) (A) (A) (A) (A) (A) (A) (A) (A) (A) (A) (A)
                 (A) (A) (A) (A) (A) (A) (A) (A) (A) (A) (A) (A)
                 (A) (A) (A) (A) (A) (A) (A) (A) (A) (A) (A) (A)
                 (A) (A) (A) (A) (A) (A) (A) (A) (A) (A) (A) (A)
                 (A) (A) (A) (A)
       Virtual   (A) (A) (A) (A) (A) (A) (A) (A) (A) (A) (A) (A)
                 (A) (A) (A) (A) (A) (A) (A) (A) (A) (A) (A) (A)
                 (A) (A) (A) (A) (A) (A) (A) (A) (A) (A) (A) (A)
                 (A) (A) (A) (A) (A) (A) (A) (A) (A) (A) (A) (A)
                 (A) (A) (A) (A) (A) (A) (A) (A) (A) (A) (A) (A)
                 (A) (A) (A) (A) (A) (A) (A) (A) (A) (A) (A) (A)
                 (A) (A) (A) (A) (A) (A) (A) (A) (A) (A) (A) (A)
                 (A) (A) (A) (A) (A) (A) (A) (A) (A) (A) (A) (A)
                 (A) (A) (A) (A) (A) (A) (A) (A) (A) (A) (A) (A)
                 (A) (A) (A) (A) (A) (A) (A) (A) (A) (A) (A) (A)
                 (A) (A) (A) (A) (A) (A) (A) (A) (A) (A) (A) (A)
                 (A) (A) (A) (A) (A) (A) (A) (A) (A) (A) (A) (A)
                 (A) (A) (A) (A) (A) (A) (A) (A) (A) (A) (A) (A)
                 (A) (A) (A) (A) (A) (A) (A) (A) (A) (A) (A) (A)
                 (A) (A) (A) (A) (A) (A) (A) (A) (A) (A) (A) (A)
                 (A) (A) (A) (A) (A) (A) (A) (A) (A) (A) (A) (A)
                 (A) (A) (A) (A) (A) (A) (A) (A) (A) (A) (A) (A)
                 (A) (A) (A) (A) (A) (A) (A) (A) (A) (A) (A) (A)
                 (A) (A) (A) (A) (A) (A) (A) (A) (A) (A) (A) (A)
                 (A) (A) (A) (A) (A) (A) (A) (A) (A) (A) (A) (A)
                 (A) (A) (A) (A) (A) (A) (A) (A) (A) (A) (A) (A)
                 (A) (A) (A) (A) (A) (A) (A) (A) (A) (A) (A) (A)
                 (A) (A) (A) (A) (A) (A) (A) (A) (A) (A) (A) (A)
                 (A) (A) (A) (A) (A) (A) (A) (A) (A) (A) (A) (A)
                 (A) (A) (A) (A) (A) (A) (A) (A) (A) (A) (A) (A)
                 (A) (A) (A) (A) (A) (A) (A) (A) (A) (A) (A) (A)
                 (A) (A) (A) (A) (A) (A) (A) (A) (A) (A) (A) (A)
                 (A) (A) (A) (A) (A) (A) (A) (A) (A) (A) (A) (A)
                 (A) (A) (A) (A) (A) (A) (A) (A) (A) (A) (A) (A)
                 (A) (A) (A) (A) (A) (A) (A) (A) (A) (A) (A) (A)
                 (A) (A) (A) (A) (A) (A) (A) (A) (A) (A) (A) (A)
                 (A) (A) (A) (A) (A) (A) (A) (A) (A) (A) (A) (A)
                 (A) (A) (A) (A) (A) (A) (A) (A) (A) (A) (A) (A)
                 (A) (A) (A) (A) (A) (A) (A) (A) (A) (A) (A) (A)
                 (A) (A) (A) (A) (A) (A) (A) (A) (A) (A) (A) (A)
                 (A) (A) (A) (A) (A) (A) (A) (A) (A) (A) (A) (A)
                 (A) (A) (A) (A) (A) (A) (A) (A) (A) (A) (A) (A)
                 (A) (A) (A) (A) (A) (A) (A) (A) (A) (A) (A) (A)
                 (A) (A) (A) (A) (A) (A) (A) (A) (A) (A) (A) (A)
                 (A) (A) (A) (A) (A) (A) (A) (A) (A) (A) (A) (A)
                 (A) (A) (A) (A) (A) (A) (A) (A) (A) (A) (A) (A)
                 (A) (A) (A) (A) (A) (A) (A) (A) (A)
 The electronic state of the initial guess is 1-A.
 FoFJK:  IHMeth= 1 ICntrl=     0 DoSepK=T KAlg= 1 I1Cent= 0 FoldK=F
 Gradient too large for Newton-Raphson -- use scaled steepest descent instead.
 FoFJK:  IHMeth= 1 ICntrl=     0 DoSepK=T KAlg= 1 I1Cent= 0 FoldK=F
 FoFJK:  IHMeth= 1 ICntrl=     0 DoSepK=T KAlg= 1 I1Cent= 0 FoldK=F
 FoFJK:  IHMeth= 1 ICntrl=     0 DoSepK=T KAlg= 1 I1Cent= 0 FoldK=F
 FoFJK:  IHMeth= 1 ICntrl=     0 DoSepK=T KAlg= 1 I1Cent= 0 FoldK=F
 Gradient too large for Newton-Raphson -- use scaled steepest descent instead.
 FoFJK:  IHMeth= 1 ICntrl=     0 DoSepK=T KAlg= 1 I1Cent= 0 FoldK=F
 FoFJK:  IHMeth= 1 ICntrl=     0 DoSepK=T KAlg= 1 I1Cent= 0 FoldK=F
 FoFJK:  IHMeth= 1 ICntrl=     0 DoSepK=T KAlg= 1 I1Cent= 0 FoldK=F
 FoFJK:  IHMeth= 1 ICntrl=     0 DoSepK=T KAlg= 1 I1Cent= 0 FoldK=F
 Gradient too large for Newton-Raphson -- use scaled steepest descent instead.
 FoFJK:  IHMeth= 1 ICntrl=     0 DoSepK=T KAlg= 1 I1Cent= 0 FoldK=F
 FoFJK:  IHMeth= 1 ICntrl=     0 DoSepK=T KAlg= 1 I1Cent= 0 FoldK=F
 FoFJK:  IHMeth= 1 ICntrl=     0 DoSepK=T KAlg= 1 I1Cent= 0 FoldK=F
 Gradient too large for Newton-Raphson -- use scaled steepest descent instead.
 FoFJK:  IHMeth= 1 ICntrl=     0 DoSepK=T KAlg= 1 I1Cent= 0 FoldK=F
 FoFJK:  IHMeth= 1 ICntrl=     0 DoSepK=T KAlg= 1 I1Cent= 0 FoldK=F
 FoFJK:  IHMeth= 1 ICntrl=     0 DoSepK=T KAlg= 1 I1Cent= 0 FoldK=F
 FoFJK:  IHMeth= 1 ICntrl=     0 DoSepK=T KAlg= 1 I1Cent= 0 FoldK=F
 Gradient too large for Newton-Raphson -- use scaled steepest descent instead.
 FoFJK:  IHMeth= 1 ICntrl=     0 DoSepK=T KAlg= 1 I1Cent= 0 FoldK=F
 FoFJK:  IHMeth= 1 ICntrl=     0 DoSepK=T KAlg= 1 I1Cent= 0 FoldK=F
 FoFJK:  IHMeth= 1 ICntrl=     0 DoSepK=T KAlg= 1 I1Cent= 0 FoldK=F
 Gradient too large for Newton-Raphson -- use scaled steepest descent instead.
 FoFJK:  IHMeth= 1 ICntrl=     0 DoSepK=T KAlg= 1 I1Cent= 0 FoldK=F
 FoFJK:  IHMeth= 1 ICntrl=     0 DoSepK=T KAlg= 1 I1Cent= 0 FoldK=F
 FoFJK:  IHMeth= 1 ICntrl=     0 DoSepK=T KAlg= 1 I1Cent= 0 FoldK=F
 FoFJK:  IHMeth= 1 ICntrl=     0 DoSepK=T KAlg= 1 I1Cent= 0 FoldK=F
 LinEq1:  Iter=  0 NonCon=     1 RMS=4.96D-05 Max=3.17D-03
 AX will form     1 AO Fock derivatives at one time.
 FoFJK:  IHMeth= 1 ICntrl=     0 DoSepK=T KAlg= 1 I1Cent= 0 FoldK=F
 LinEq1:  Iter=  1 NonCon=     1 RMS=5.71D-05 Max=3.93D-03
 FoFJK:  IHMeth= 1 ICntrl=     0 DoSepK=T KAlg= 1 I1Cent= 0 FoldK=F
 LinEq1:  Iter=  2 NonCon=     1 RMS=1.71D-05 Max=9.81D-04
 FoFJK:  IHMeth= 1 ICntrl=     0 DoSepK=T KAlg= 1 I1Cent= 0 FoldK=F
 LinEq1:  Iter=  3 NonCon=     1 RMS=1.25D-05 Max=8.32D-04
 FoFJK:  IHMeth= 1 ICntrl=     0 DoSepK=T KAlg= 1 I1Cent= 0 FoldK=F
 LinEq1:  Iter=  4 NonCon=     1 RMS=1.88D-06 Max=1.05D-04
 FoFJK:  IHMeth= 1 ICntrl=     0 DoSepK=T KAlg= 1 I1Cent= 0 FoldK=F
 LinEq1:  Iter=  5 NonCon=     1 RMS=1.46D-06 Max=7.45D-05
 FoFJK:  IHMeth= 1 ICntrl=     0 DoSepK=T KAlg= 1 I1Cent= 0 FoldK=F
 LinEq1:  Iter=  6 NonCon=     1 RMS=4.56D-07 Max=2.06D-05
 FoFJK:  IHMeth= 1 ICntrl=     0 DoSepK=T KAlg= 1 I1Cent= 0 FoldK=F
 LinEq1:  Iter=  7 NonCon=     1 RMS=3.44D-07 Max=1.41D-05
 FoFJK:  IHMeth= 1 ICntrl=     0 DoSepK=T KAlg= 1 I1Cent= 0 FoldK=F
 LinEq1:  Iter=  8 NonCon=     1 RMS=1.06D-07 Max=6.40D-06
 FoFJK:  IHMeth= 1 ICntrl=     0 DoSepK=T KAlg= 1 I1Cent= 0 FoldK=F
 LinEq1:  Iter=  9 NonCon=     1 RMS=6.57D-08 Max=3.23D-06
 FoFJK:  IHMeth= 1 ICntrl=     0 DoSepK=T KAlg= 1 I1Cent= 0 FoldK=F
 LinEq1:  Iter= 10 NonCon=     1 RMS=2.89D-08 Max=1.15D-06
 FoFJK:  IHMeth= 1 ICntrl=     0 DoSepK=T KAlg= 1 I1Cent= 0 FoldK=F
 LinEq1:  Iter= 11 NonCon=     1 RMS=2.13D-08 Max=1.33D-06
 FoFJK:  IHMeth= 1 ICntrl=     0 DoSepK=T KAlg= 1 I1Cent= 0 FoldK=F
 LinEq1:  Iter= 12 NonCon=     1 RMS=8.03D-09 Max=5.46D-07
 FoFJK:  IHMeth= 1 ICntrl=     0 DoSepK=T KAlg= 1 I1Cent= 0 FoldK=F
 LinEq1:  Iter= 13 NonCon=     0 RMS=3.53D-09 Max=9.87D-08
 Linear equations converged to 2.283D-08 2.283D-07 after    13 iterations.
 FoFJK:  IHMeth= 1 ICntrl=     0 DoSepK=T KAlg= 1 I1Cent= 0 FoldK=F
 FoFJK:  IHMeth= 1 ICntrl=     0 DoSepK=T KAlg= 1 I1Cent= 0 FoldK=F
 FoFJK:  IHMeth= 1 ICntrl=     0 DoSepK=T KAlg= 1 I1Cent= 0 FoldK=F
 LinEq1:  Iter=  0 NonCon=     1 RMS=2.08D-07 Max=1.39D-05
 FoFJK:  IHMeth= 1 ICntrl=     0 DoSepK=T KAlg= 1 I1Cent= 0 FoldK=F
 LinEq1:  Iter=  1 NonCon=     1 RMS=1.02D-07 Max=4.36D-06
 FoFJK:  IHMeth= 1 ICntrl=     0 DoSepK=T KAlg= 1 I1Cent= 0 FoldK=F
 LinEq1:  Iter=  2 NonCon=     1 RMS=5.96D-08 Max=4.29D-06
 FoFJK:  IHMeth= 1 ICntrl=     0 DoSepK=T KAlg= 1 I1Cent= 0 FoldK=F
 LinEq1:  Iter=  3 NonCon=     1 RMS=3.16D-08 Max=8.81D-07
 FoFJK:  IHMeth= 1 ICntrl=     0 DoSepK=T KAlg= 1 I1Cent= 0 FoldK=F
 LinEq1:  Iter=  4 NonCon=     1 RMS=2.68D-08 Max=2.08D-06
 FoFJK:  IHMeth= 1 ICntrl=     0 DoSepK=T KAlg= 1 I1Cent= 0 FoldK=F
 LinEq1:  Iter=  5 NonCon=     1 RMS=1.52D-08 Max=7.01D-07
 FoFJK:  IHMeth= 1 ICntrl=     0 DoSepK=T KAlg= 1 I1Cent= 0 FoldK=F
 LinEq1:  Iter=  6 NonCon=     1 RMS=7.87D-09 Max=3.25D-07
 FoFJK:  IHMeth= 1 ICntrl=     0 DoSepK=T KAlg= 1 I1Cent= 0 FoldK=F
 LinEq1:  Iter=  7 NonCon=     1 RMS=3.13D-09 Max=1.99D-07
 FoFJK:  IHMeth= 1 ICntrl=     0 DoSepK=T KAlg= 1 I1Cent= 0 FoldK=F
 LinEq1:  Iter=  8 NonCon=     1 RMS=2.49D-09 Max=1.71D-07
 FoFJK:  IHMeth= 1 ICntrl=     0 DoSepK=T KAlg= 1 I1Cent= 0 FoldK=F
 LinEq1:  Iter=  9 NonCon=     1 RMS=1.16D-09 Max=5.70D-08
 FoFJK:  IHMeth= 1 ICntrl=     0 DoSepK=T KAlg= 1 I1Cent= 0 FoldK=F
 LinEq1:  Iter= 10 NonCon=     1 RMS=6.49D-10 Max=2.24D-08
 FoFJK:  IHMeth= 1 ICntrl=     0 DoSepK=T KAlg= 1 I1Cent= 0 FoldK=F
 LinEq1:  Iter= 11 NonCon=     1 RMS=2.86D-10 Max=1.31D-08
 FoFJK:  IHMeth= 1 ICntrl=     0 DoSepK=T KAlg= 1 I1Cent= 0 FoldK=F
 LinEq1:  Iter= 12 NonCon=     1 RMS=1.37D-10 Max=5.46D-09
 FoFJK:  IHMeth= 1 ICntrl=     0 DoSepK=T KAlg= 1 I1Cent= 0 FoldK=F
 LinEq1:  Iter= 13 NonCon=     0 RMS=5.00D-11 Max=1.18D-09
 Linear equations converged to 3.654D-10 3.654D-09 after    13 iterations.
 FoFJK:  IHMeth= 1 ICntrl=     0 DoSepK=T KAlg= 1 I1Cent= 0 FoldK=F
 SCF Done:  E(RCAM-B3LYP) =  -1040.74442183     a.u. after    9 cycles
            Convg  =    0.3594D-08                    53 Fock formations.
              S**2 =  0.0000                  -V/T =  2.0030

 **********************************************************************

            Population analysis using the SCF density.

 **********************************************************************

 Orbital symmetries:
       Occupied  (A) (A) (A) (A) (A) (A) (A) (A) (A) (A) (A) (A)
                 (A) (A) (A) (A) (A) (A) (A) (A) (A) (A) (A) (A)
                 (A) (A) (A) (A) (A) (A) (A) (A) (A) (A) (A) (A)
                 (A) (A) (A) (A) (A) (A) (A) (A) (A) (A) (A) (A)
                 (A) (A) (A) (A)
       Virtual   (A) (A) (A) (A) (A) (A) (A) (A) (A) (A) (A) (A)
                 (A) (A) (A) (A) (A) (A) (A) (A) (A) (A) (A) (A)
                 (A) (A) (A) (A) (A) (A) (A) (A) (A) (A) (A) (A)
                 (A) (A) (A) (A) (A) (A) (A) (A) (A) (A) (A) (A)
                 (A) (A) (A) (A) (A) (A) (A) (A) (A) (A) (A) (A)
                 (A) (A) (A) (A) (A) (A) (A) (A) (A) (A) (A) (A)
                 (A) (A) (A) (A) (A) (A) (A) (A) (A) (A) (A) (A)
                 (A) (A) (A) (A) (A) (A) (A) (A) (A) (A) (A) (A)
                 (A) (A) (A) (A) (A) (A) (A) (A) (A) (A) (A) (A)
                 (A) (A) (A) (A) (A) (A) (A) (A) (A) (A) (A) (A)
                 (A) (A) (A) (A) (A) (A) (A) (A) (A) (A) (A) (A)
                 (A) (A) (A) (A) (A) (A) (A) (A) (A) (A) (A) (A)
                 (A) (A) (A) (A) (A) (A) (A) (A) (A) (A) (A) (A)
                 (A) (A) (A) (A) (A) (A) (A) (A) (A) (A) (A) (A)
                 (A) (A) (A) (A) (A) (A) (A) (A) (A) (A) (A) (A)
                 (A) (A) (A) (A) (A) (A) (A) (A) (A) (A) (A) (A)
                 (A) (A) (A) (A) (A) (A) (A) (A) (A) (A) (A) (A)
                 (A) (A) (A) (A) (A) (A) (A) (A) (A) (A) (A) (A)
                 (A) (A) (A) (A) (A) (A) (A) (A) (A) (A) (A) (A)
                 (A) (A) (A) (A) (A) (A) (A) (A) (A) (A) (A) (A)
                 (A) (A) (A) (A) (A) (A) (A) (A) (A) (A) (A) (A)
                 (A) (A) (A) (A) (A) (A) (A) (A) (A) (A) (A) (A)
                 (A) (A) (A) (A) (A) (A) (A) (A) (A) (A) (A) (A)
                 (A) (A) (A) (A) (A) (A) (A) (A) (A) (A) (A) (A)
                 (A) (A) (A) (A) (A) (A) (A) (A) (A) (A) (A) (A)
                 (A) (A) (A) (A) (A) (A) (A) (A) (A) (A) (A) (A)
                 (A) (A) (A) (A) (A) (A) (A) (A) (A) (A) (A) (A)
                 (A) (A) (A) (A) (A) (A) (A) (A) (A) (A) (A) (A)
                 (A) (A) (A) (A) (A) (A) (A) (A) (A) (A) (A) (A)
                 (A) (A) (A) (A) (A) (A) (A) (A) (A) (A) (A) (A)
                 (A) (A) (A) (A) (A) (A) (A) (A) (A) (A) (A) (A)
                 (A) (A) (A) (A) (A) (A) (A) (A) (A) (A) (A) (A)
                 (A) (A) (A) (A) (A) (A) (A) (A) (A) (A) (A) (A)
                 (A) (A) (A) (A) (A) (A) (A) (A) (A) (A) (A) (A)
                 (A) (A) (A) (A) (A) (A) (A) (A) (A) (A) (A) (A)
                 (A) (A) (A) (A) (A) (A) (A) (A) (A) (A) (A) (A)
                 (A) (A) (A) (A) (A) (A) (A) (A) (A) (A) (A) (A)
                 (A) (A) (A) (A) (A) (A) (A) (A) (A) (A) (A) (A)
                 (A) (A) (A) (A) (A) (A) (A) (A) (A) (A) (A) (A)
                 (A) (A) (A) (A) (A) (A) (A) (A) (A) (A) (A) (A)
                 (A) (A) (A) (A) (A) (A) (A) (A) (A) (A) (A) (A)
                 (A) (A) (A) (A) (A) (A) (A) (A) (A)
 The electronic state is 1-A.
 Alpha  occ. eigenvalues --  -89.14328 -19.24081 -19.24079 -19.22160 -19.21861
 Alpha  occ. eigenvalues --  -14.64341 -14.44039 -10.35782 -10.32142 -10.31020
 Alpha  occ. eigenvalues --  -10.30697 -10.30261 -10.29042  -8.19359  -6.15676
 Alpha  occ. eigenvalues --   -6.15675  -6.15632  -1.33430  -1.22785  -1.15461
 Alpha  occ. eigenvalues --   -1.12220  -1.06386  -0.99409  -0.91063  -0.89322
 Alpha  occ. eigenvalues --   -0.80454  -0.79068  -0.73765  -0.70025  -0.66379
 Alpha  occ. eigenvalues --   -0.64887  -0.63294  -0.63093  -0.61637  -0.59629
 Alpha  occ. eigenvalues --   -0.58329  -0.56307  -0.55000  -0.53978  -0.52391
 Alpha  occ. eigenvalues --   -0.51335  -0.47594  -0.44049  -0.43855  -0.42882
 Alpha  occ. eigenvalues --   -0.41394  -0.39963  -0.39163  -0.38995  -0.37711
 Alpha  occ. eigenvalues --   -0.37024  -0.31445
 Alpha virt. eigenvalues --   -0.05556  -0.03329   0.00799   0.01851   0.02145
 Alpha virt. eigenvalues --    0.03196   0.04306   0.04556   0.05293   0.06504
 Alpha virt. eigenvalues --    0.08116   0.08348   0.08577   0.09460   0.09965
 Alpha virt. eigenvalues --    0.10486   0.10682   0.10849   0.11643   0.12517
 Alpha virt. eigenvalues --    0.12758   0.13791   0.13823   0.14234   0.14624
 Alpha virt. eigenvalues --    0.14964   0.16050   0.16696   0.17084   0.17557
 Alpha virt. eigenvalues --    0.17858   0.18714   0.18817   0.19394   0.19898
 Alpha virt. eigenvalues --    0.20494   0.21287   0.22631   0.22802   0.23352
 Alpha virt. eigenvalues --    0.23532   0.23865   0.24200   0.24624   0.24758
 Alpha virt. eigenvalues --    0.25250   0.25583   0.26355   0.26825   0.27326
 Alpha virt. eigenvalues --    0.27870   0.28262   0.28543   0.29220   0.29841
 Alpha virt. eigenvalues --    0.30215   0.30447   0.30920   0.32103   0.32304
 Alpha virt. eigenvalues --    0.32942   0.33517   0.34037   0.34561   0.34830
 Alpha virt. eigenvalues --    0.35315   0.35831   0.36741   0.37220   0.37534
 Alpha virt. eigenvalues --    0.37802   0.38276   0.38432   0.39133   0.39501
 Alpha virt. eigenvalues --    0.40004   0.40678   0.41224   0.41864   0.42035
 Alpha virt. eigenvalues --    0.42523   0.42752   0.43506   0.43872   0.44182
 Alpha virt. eigenvalues --    0.45072   0.45754   0.46294   0.46968   0.47329
 Alpha virt. eigenvalues --    0.47762   0.48101   0.48289   0.49159   0.49886
 Alpha virt. eigenvalues --    0.50045   0.50768   0.51540   0.51848   0.52292
 Alpha virt. eigenvalues --    0.52615   0.53592   0.54014   0.54810   0.55915
 Alpha virt. eigenvalues --    0.56302   0.57384   0.57782   0.58579   0.59222
 Alpha virt. eigenvalues --    0.59431   0.59819   0.60386   0.60981   0.61411
 Alpha virt. eigenvalues --    0.62304   0.62604   0.63324   0.63556   0.64094
 Alpha virt. eigenvalues --    0.64588   0.65345   0.65795   0.66176   0.66723
 Alpha virt. eigenvalues --    0.67391   0.68038   0.68259   0.68634   0.69296
 Alpha virt. eigenvalues --    0.70121   0.70414   0.71478   0.71588   0.72455
 Alpha virt. eigenvalues --    0.72607   0.73503   0.73979   0.74658   0.75276
 Alpha virt. eigenvalues --    0.76200   0.76796   0.77058   0.77581   0.78481
 Alpha virt. eigenvalues --    0.78754   0.79412   0.80089   0.80463   0.80576
 Alpha virt. eigenvalues --    0.81254   0.81728   0.82468   0.82751   0.83384
 Alpha virt. eigenvalues --    0.83826   0.84535   0.84989   0.85880   0.86587
 Alpha virt. eigenvalues --    0.87391   0.88614   0.89296   0.89504   0.90112
 Alpha virt. eigenvalues --    0.91344   0.92037   0.93273   0.94834   0.95444
 Alpha virt. eigenvalues --    0.96098   0.97406   0.98050   0.99078   0.99925
 Alpha virt. eigenvalues --    1.00161   1.00661   1.02383   1.02657   1.03442
 Alpha virt. eigenvalues --    1.04020   1.05314   1.06350   1.06515   1.07873
 Alpha virt. eigenvalues --    1.08718   1.09242   1.10785   1.11849   1.12345
 Alpha virt. eigenvalues --    1.13439   1.14146   1.16202   1.17708   1.18190
 Alpha virt. eigenvalues --    1.19426   1.19575   1.20365   1.22949   1.24402
 Alpha virt. eigenvalues --    1.24846   1.28064   1.30513   1.31100   1.33062
 Alpha virt. eigenvalues --    1.35994   1.36320   1.36689   1.37027   1.40837
 Alpha virt. eigenvalues --    1.43069   1.44111   1.45681   1.46726   1.47307
 Alpha virt. eigenvalues --    1.48939   1.49616   1.52740   1.53165   1.54410
 Alpha virt. eigenvalues --    1.55603   1.56791   1.57289   1.59003   1.61701
 Alpha virt. eigenvalues --    1.63248   1.63618   1.66556   1.67659   1.68154
 Alpha virt. eigenvalues --    1.71397   1.71787   1.72613   1.72934   1.76808
 Alpha virt. eigenvalues --    1.77860   1.78950   1.79120   1.79894   1.80895
 Alpha virt. eigenvalues --    1.82710   1.84280   1.85611   1.86108   1.87871
 Alpha virt. eigenvalues --    1.88460   1.89993   1.90147   1.90428   1.93075
 Alpha virt. eigenvalues --    1.93613   1.93879   1.95479   1.96685   1.97171
 Alpha virt. eigenvalues --    1.98211   1.99296   2.00320   2.01806   2.02514
 Alpha virt. eigenvalues --    2.05554   2.07151   2.09351   2.09984   2.11114
 Alpha virt. eigenvalues --    2.13292   2.14277   2.18207   2.19979   2.20851
 Alpha virt. eigenvalues --    2.24051   2.24686   2.26530   2.29365   2.30104
 Alpha virt. eigenvalues --    2.31704   2.32046   2.33166   2.34507   2.37004
 Alpha virt. eigenvalues --    2.38076   2.39628   2.39937   2.41816   2.42246
 Alpha virt. eigenvalues --    2.43553   2.43954   2.45341   2.47481   2.49424
 Alpha virt. eigenvalues --    2.50110   2.51680   2.56025   2.57358   2.59028
 Alpha virt. eigenvalues --    2.62885   2.63621   2.65007   2.65760   2.67912
 Alpha virt. eigenvalues --    2.69574   2.70186   2.71406   2.72967   2.75332
 Alpha virt. eigenvalues --    2.76535   2.79244   2.82285   2.83434   2.85375
 Alpha virt. eigenvalues --    2.86824   2.87710   2.88226   2.89533   2.89828
 Alpha virt. eigenvalues --    2.91313   2.93353   2.94576   2.95624   2.96233
 Alpha virt. eigenvalues --    2.97964   2.99660   3.02530   3.04182   3.06098
 Alpha virt. eigenvalues --    3.08729   3.11256   3.11735   3.12762   3.13219
 Alpha virt. eigenvalues --    3.14278   3.15487   3.16663   3.18016   3.20380
 Alpha virt. eigenvalues --    3.21347   3.23353   3.24432   3.26949   3.27587
 Alpha virt. eigenvalues --    3.28471   3.29731   3.30725   3.33540   3.34216
 Alpha virt. eigenvalues --    3.36138   3.36903   3.38258   3.39929   3.40470
 Alpha virt. eigenvalues --    3.40824   3.44412   3.45945   3.46553   3.47093
 Alpha virt. eigenvalues --    3.49383   3.50054   3.51505   3.51898   3.52651
 Alpha virt. eigenvalues --    3.54631   3.55491   3.56332   3.58318   3.58918
 Alpha virt. eigenvalues --    3.60492   3.60877   3.63013   3.64908   3.66159
 Alpha virt. eigenvalues --    3.70205   3.73559   3.75481   3.77122   3.80279
 Alpha virt. eigenvalues --    3.81715   3.82522   3.89386   3.95185   3.96241
 Alpha virt. eigenvalues --    3.97594   4.04832   4.06771   4.09686   4.11968
 Alpha virt. eigenvalues --    4.13144   4.16371   4.17948   4.20295   4.22415
 Alpha virt. eigenvalues --    4.24119   4.25408   4.27270   4.28914   4.32226
 Alpha virt. eigenvalues --    4.33269   4.34031   4.36079   4.41000   4.45291
 Alpha virt. eigenvalues --    4.48343   4.53019   4.56147   4.62477   4.64986
 Alpha virt. eigenvalues --    4.71439   4.73689   4.76752   4.77914   4.80847
 Alpha virt. eigenvalues --    4.82336   4.85901   4.88721   4.92018   4.92551
 Alpha virt. eigenvalues --    4.93891   4.95901   4.97583   5.02816   5.06537
 Alpha virt. eigenvalues --    5.09975   5.14397   5.18548   5.19572   5.19982
 Alpha virt. eigenvalues --    5.20441   5.22944   5.23158   5.24467   5.25480
 Alpha virt. eigenvalues --    5.27233   5.28736   5.30455   5.31409   5.33466
 Alpha virt. eigenvalues --    5.35168   5.39030   5.40975   5.41507   5.43188
 Alpha virt. eigenvalues --    5.44637   5.48477   5.51341   5.54406   5.55518
 Alpha virt. eigenvalues --    5.60753   5.62823   5.67234   5.70170   5.70964
 Alpha virt. eigenvalues --    5.71178   5.71900   5.74591   5.76950   5.79741
 Alpha virt. eigenvalues --    5.87379   5.96384   6.04689   6.11222   6.17018
 Alpha virt. eigenvalues --    6.44290   6.45764   6.52559   6.53804   6.54499
 Alpha virt. eigenvalues --    6.58003   6.59553   6.61402   6.62184   6.63220
 Alpha virt. eigenvalues --    6.79170   6.84598   6.91804   6.92415   6.94099
 Alpha virt. eigenvalues --    6.95488   6.98776   7.12519   7.13148   7.18815
 Alpha virt. eigenvalues --    7.32212   7.46621   7.57955   7.77981   7.82289
 Alpha virt. eigenvalues --    9.27592   9.65622   9.94941  22.44601  22.71216
 Alpha virt. eigenvalues --   22.97924  23.00626  23.08980  23.19762  23.51246
 Alpha virt. eigenvalues --   32.49079  32.87648  44.00290  44.07488  44.47367
 Alpha virt. eigenvalues --   44.67362
          Condensed to atoms (all electrons):
              1          2          3          4          5          6
     1  C    5.930853   0.374424  -0.164048  -0.056791   0.086136   0.163846
     2  C    0.374424   6.120175   0.138998  -0.134925   0.146644  -0.512214
     3  C   -0.164048   0.138998   6.307577   0.206166  -0.302206   0.050413
     4  C   -0.056791  -0.134925   0.206166   6.784003  -0.122554  -0.419542
     5  C    0.086136   0.146644  -0.302206  -0.122554   6.194126  -0.283541
     6  C    0.163846  -0.512214   0.050413  -0.419542  -0.283541   6.692458
     7  H    0.158683  -0.083886   0.002718   0.003509  -0.000671   0.011754
     8  H    0.003965  -0.097251   0.298427  -0.070244   0.011334   0.005075
     9  H   -0.006491   0.016873  -0.047204   0.453865  -0.221144  -0.003096
    10  N   -0.133085   0.492575  -0.257663  -0.011400   0.017241  -0.006458
    11  O    0.000643  -0.100628   0.044943   0.007105  -0.004886  -0.001453
    12  O    0.017049  -0.096205   0.026016  -0.000571  -0.007504   0.014100
    13  N   -0.011309   0.000585  -0.012977  -0.098285   0.143516   0.069804
    14  H   -0.000435   0.003401  -0.003309   0.025704  -0.087907  -0.037468
    15  H    0.002934   0.001702  -0.000515  -0.015463   0.032915  -0.028604
    16  S   -0.061696  -0.039298   0.009328  -0.011330  -0.054698   0.443827
    17  O    0.002959   0.001619   0.002627   0.008706  -0.026963   0.002420
    18  O    0.080674   0.011619  -0.004917   0.001192   0.027632  -0.124573
    19  H   -0.017657   0.001314  -0.000130   0.001708  -0.040494  -0.010602
              7          8          9         10         11         12
     1  C    0.158683   0.003965  -0.006491  -0.133085   0.000643   0.017049
     2  C   -0.083886  -0.097251   0.016873   0.492575  -0.100628  -0.096205
     3  C    0.002718   0.298427  -0.047204  -0.257663   0.044943   0.026016
     4  C    0.003509  -0.070244   0.453865  -0.011400   0.007105  -0.000571
     5  C   -0.000671   0.011334  -0.221144   0.017241  -0.004886  -0.007504
     6  C    0.011754   0.005075  -0.003096  -0.006458  -0.001453   0.014100
     7  H    0.334128   0.001228  -0.000682   0.004890  -0.003311  -0.009367
     8  H    0.001228   0.400781  -0.010125   0.001225   0.003030  -0.002347
     9  H   -0.000682  -0.010125   0.527369  -0.000859   0.000059   0.000077
    10  N    0.004890   0.001225  -0.000859   5.808479   0.083679   0.099880
    11  O   -0.003311   0.003030   0.000059   0.083679   8.664560  -0.107709
    12  O   -0.009367  -0.002347   0.000077   0.099880  -0.107709   8.645130
    13  N    0.002302   0.000162   0.007566  -0.000069   0.000088   0.000133
    14  H   -0.000064  -0.000464   0.019458  -0.000061   0.000022  -0.000002
    15  H   -0.000326   0.000055  -0.002656  -0.000005   0.000008   0.000032
    16  S   -0.022053   0.000926  -0.001905  -0.001552   0.000094  -0.000017
    17  O    0.002305  -0.000154   0.000075   0.000009  -0.000010  -0.000087
    18  O   -0.010887  -0.000029   0.000278  -0.000848   0.000037  -0.001993
    19  H    0.003340  -0.000065   0.000050  -0.000004   0.000007  -0.000052
             13         14         15         16         17         18
     1  C   -0.011309  -0.000435   0.002934  -0.061696   0.002959   0.080674
     2  C    0.000585   0.003401   0.001702  -0.039298   0.001619   0.011619
     3  C   -0.012977  -0.003309  -0.000515   0.009328   0.002627  -0.004917
     4  C   -0.098285   0.025704  -0.015463  -0.011330   0.008706   0.001192
     5  C    0.143516  -0.087907   0.032915  -0.054698  -0.026963   0.027632
     6  C    0.069804  -0.037468  -0.028604   0.443827   0.002420  -0.124573
     7  H    0.002302  -0.000064  -0.000326  -0.022053   0.002305  -0.010887
     8  H    0.000162  -0.000464   0.000055   0.000926  -0.000154  -0.000029
     9  H    0.007566   0.019458  -0.002656  -0.001905   0.000075   0.000278
    10  N   -0.000069  -0.000061  -0.000005  -0.001552   0.000009  -0.000848
    11  O    0.000088   0.000022   0.000008   0.000094  -0.000010   0.000037
    12  O    0.000133  -0.000002   0.000032  -0.000017  -0.000087  -0.001993
    13  N    6.596150   0.360343   0.343981   0.023695  -0.069472  -0.006024
    14  H    0.360343   0.610552  -0.068166  -0.002317  -0.001577   0.000486
    15  H    0.343981  -0.068166   0.465844  -0.012917   0.024975   0.002601
    16  S    0.023695  -0.002317  -0.012917  13.822487   0.315649   0.362035
    17  O   -0.069472  -0.001577   0.024975   0.315649   8.421467  -0.027875
    18  O   -0.006024   0.000486   0.002601   0.362035  -0.027875   8.273321
    19  H    0.007165  -0.001908   0.001537   0.320889  -0.011490  -0.020147
             19
     1  C   -0.017657
     2  C    0.001314
     3  C   -0.000130
     4  C    0.001708
     5  C   -0.040494
     6  C   -0.010602
     7  H    0.003340
     8  H   -0.000065
     9  H    0.000050
    10  N   -0.000004
    11  O    0.000007
    12  O   -0.000052
    13  N    0.007165
    14  H   -0.001908
    15  H    0.001537
    16  S    0.320889
    17  O   -0.011490
    18  O   -0.020147
    19  H    0.622188
 Mulliken atomic charges:
              1
     1  C   -0.370654
     2  C   -0.245521
     3  C   -0.294244
     4  C   -0.550856
     5  C    0.493025
     6  C   -0.026146
     7  H    0.606390
     8  H    0.454471
     9  H    0.268491
    10  N    0.904025
    11  O   -0.586277
    12  O   -0.576561
    13  N   -0.357354
    14  H    0.183712
    15  H    0.252067
    16  S    0.908851
    17  O   -0.645185
    18  O   -0.562582
    19  H    0.144350
 Sum of Mulliken atomic charges =   0.00000
 Mulliken charges with hydrogens summed into heavy atoms:
              1
     1  C    0.235736
     2  C   -0.245521
     3  C    0.160226
     4  C   -0.282365
     5  C    0.493025
     6  C   -0.026146
    10  N    0.904025
    11  O   -0.586277
    12  O   -0.576561
    13  N    0.078424
    16  S    1.053201
    17  O   -0.645185
    18  O   -0.562582
 Sum of Mulliken charges with hydrogens summed into heavy atoms =   0.00000
 Electronic spatial extent (au):  <R**2>=           2847.7380
 Charge=              0.0000 electrons
 Dipole moment (field-independent basis, Debye):
    X=             -2.6699    Y=              5.9831    Z=              1.7299  Tot=              6.7763
 Quadrupole moment (field-independent basis, Debye-Ang):
   XX=           -101.2660   YY=            -77.4531   ZZ=            -80.5571
   XY=             -1.4851   XZ=             -4.8811   YZ=             -3.1964
 Traceless Quadrupole moment (field-independent basis, Debye-Ang):
   XX=            -14.8406   YY=              8.9723   ZZ=              5.8683
   XY=             -1.4851   XZ=             -4.8811   YZ=             -3.1964
 Octapole moment (field-independent basis, Debye-Ang**2):
  XXX=            -59.0045  YYY=             52.2556  ZZZ=              1.1530  XYY=            -11.2243
  XXY=             30.2038  XXZ=             15.9480  XZZ=             -1.1890  YZZ=            -11.6200
  YYZ=             -2.0426  XYZ=              7.5837
 Hexadecapole moment (field-independent basis, Debye-Ang**3):
 XXXX=          -2830.0156 YYYY=           -914.6770 ZZZZ=           -102.8960 XXXY=             13.5693
 XXXZ=            -37.9237 YYYX=            -54.4434 YYYZ=            -12.9016 ZZZX=             -5.7423
 ZZZY=             -3.9752 XXYY=           -572.5535 XXZZ=           -409.1220 YYZZ=           -195.3080
 XXYZ=            -20.8134 YYXZ=              4.0643 ZZXY=              2.7393
 N-N= 9.239388987759D+02 E-N=-4.297757680616D+03  KE= 1.037594210320D+03
 Calling FoFJK, ICntrl=      2127 FMM=F ISym2X=0 I1Cent= 0 IOpClX= 0 NMat=1 NMatS=1 NMatT=0.
 FoFJK:  IHMeth= 1 ICntrl=  2127 DoSepK=T KAlg= 1 I1Cent= 0 FoldK=F
 ***** Axes restored to original set *****
 -------------------------------------------------------------------
 Center     Atomic                   Forces (Hartrees/Bohr)
 Number     Number              X              Y              Z
 -------------------------------------------------------------------
      1        6          -0.000001927   -0.000000184   -0.000000558
      2        6           0.000000779   -0.000000078   -0.000000228
      3        6           0.000000366   -0.000000435   -0.000000403
      4        6          -0.000001503    0.000000333   -0.000000129
      5        6           0.000002195   -0.000000687   -0.000000457
      6        6           0.000000364    0.000002140    0.000000830
      7        1           0.000001070    0.000000120   -0.000000013
      8        1          -0.000000484    0.000000439   -0.000000238
      9        1          -0.000000292   -0.000000087    0.000000391
     10        7          -0.000000955    0.000000666   -0.000000241
     11        8           0.000000163   -0.000000027   -0.000000642
     12        8           0.000000610    0.000000229   -0.000000896
     13        7          -0.000000392   -0.000000340    0.000000146
     14        1          -0.000000431   -0.000000234    0.000000582
     15        1           0.000000333    0.000000247    0.000000462
     16       16           0.000002745   -0.000003752    0.000000717
     17        8          -0.000003211    0.000002167   -0.000001657
     18        8           0.000000424   -0.000000379    0.000000077
     19        1           0.000000145   -0.000000139    0.000002258
 -------------------------------------------------------------------
 Cartesian Forces:  Max     0.000003752 RMS     0.000001109

 GradGradGradGradGradGradGradGradGradGradGradGradGradGradGradGradGradGrad
 Berny optimization.
 Internal  Forces:  Max     0.000004505 RMS     0.000000643
 Search for a local minimum.
 Step number   1 out of a maximum of   97
 All quantities printed in internal units (Hartrees-Bohrs-Radians)
 Mixed Optimization -- En-DIIS/RFO-DIIS
 Second derivative matrix not updated -- first step.
     Eigenvalues ---    0.00925   0.00925   0.00959   0.01657   0.01891
     Eigenvalues ---    0.02004   0.02118   0.02230   0.02289   0.02306
     Eigenvalues ---    0.02330   0.02366   0.02397   0.03067   0.08879
     Eigenvalues ---    0.08941   0.15999   0.16000   0.16000   0.16000
     Eigenvalues ---    0.16000   0.16000   0.22361   0.23493   0.24337
     Eigenvalues ---    0.24600   0.24645   0.24988   0.24993   0.25000
     Eigenvalues ---    0.25000   0.25000   0.25126   0.29962   0.35732
     Eigenvalues ---    0.35995   0.36023   0.37216   0.41403   0.42601
     Eigenvalues ---    0.45809   0.46133   0.46944   0.46974   0.49238
     Eigenvalues ---    0.50526   0.54262   0.97669   0.98561   1.01237
     Eigenvalues ---    1.063341000.000001000.000001000.000001000.00000
     Eigenvalues --- 1000.000001000.000001000.000001000.000001000.00000
     Eigenvalues --- 1000.000001000.000001000.000001000.000001000.00000
     Eigenvalues --- 1000.000001000.000001000.000001000.000001000.00000
     Eigenvalues --- 1000.000001000.000001000.000001000.000001000.00000
     Eigenvalues --- 1000.000001000.000001000.000001000.000001000.00000
     Eigenvalues --- 1000.000001000.000001000.000001000.000001000.00000
     Eigenvalues --- 1000.000001000.00000
 RFO step:  Lambda= 0.00000000D+00 EMin= 9.24619395D-03
 Linear search not attempted -- first point.
 Iteration  1 RMS(Cart)=  0.00001149 RMS(Int)=  0.00000000
 Iteration  2 RMS(Cart)=  0.00000000 RMS(Int)=  0.00000000
 Variable       Old X    -DE/DX   Delta X   Delta X   Delta X     New X
                                 (Linear)    (Quad)   (Total)
    R1        2.59662   0.00000   0.00000   0.00000   0.00000   2.59662
    R2        2.61734   0.00000   0.00000   0.00000   0.00000   2.61734
    R3        2.04089   0.00000   0.00000   0.00000   0.00000   2.04089
    R4        2.62611   0.00000   0.00000   0.00000   0.00000   2.62611
    R5        2.75521   0.00000   0.00000   0.00000   0.00000   2.75521
    R6        2.58637   0.00000   0.00000   0.00000   0.00000   2.58637
    R7        2.04045   0.00000   0.00000   0.00000   0.00000   2.04045
    R8        2.65800   0.00000   0.00000   0.00000   0.00000   2.65800
    R9        2.04503   0.00000   0.00000   0.00000   0.00000   2.04503
   R10        2.66987   0.00000   0.00000   0.00000   0.00000   2.66987
   R11        2.55794   0.00000   0.00000   0.00000   0.00000   2.55794
   R12        3.31739   0.00000   0.00000   0.00000   0.00000   3.31739
   R13        2.29587   0.00000   0.00000   0.00000   0.00000   2.29587
   R14        2.29221   0.00000   0.00000   0.00000   0.00000   2.29221
   R15        1.89781   0.00000   0.00000   0.00000   0.00000   1.89781
   R16        1.90682   0.00000   0.00000   0.00000   0.00000   1.90682
   R17        2.71847   0.00000   0.00000   0.00000   0.00000   2.71848
   R18        2.69904   0.00000   0.00000   0.00000   0.00000   2.69904
   R19        2.56390   0.00000   0.00000   0.00001   0.00001   2.56391
    A1        2.08390   0.00000   0.00000   0.00000   0.00000   2.08390
    A2        2.10178   0.00000   0.00000  -0.00001  -0.00001   2.10178
    A3        2.09749   0.00000   0.00000   0.00001   0.00001   2.09750
    A4        2.11055   0.00000   0.00000   0.00000   0.00000   2.11055
    A5        2.08616   0.00000   0.00000   0.00000   0.00000   2.08616
    A6        2.08647   0.00000   0.00000   0.00000   0.00000   2.08647
    A7        2.09009   0.00000   0.00000   0.00000   0.00000   2.09009
    A8        2.07992   0.00000   0.00000   0.00000   0.00000   2.07992
    A9        2.11316   0.00000   0.00000   0.00000   0.00000   2.11316
   A10        2.11999   0.00000   0.00000   0.00000   0.00000   2.11998
   A11        2.09194   0.00000   0.00000   0.00000   0.00000   2.09194
   A12        2.07120   0.00000   0.00000   0.00000   0.00000   2.07120
   A13        2.04544   0.00000   0.00000   0.00000   0.00000   2.04544
   A14        2.09378   0.00000   0.00000   0.00000   0.00000   2.09378
   A15        2.14368   0.00000   0.00000   0.00000   0.00000   2.14368
   A16        2.11620   0.00000   0.00000   0.00000   0.00000   2.11620
   A17        2.04368   0.00000   0.00000   0.00000   0.00000   2.04367
   A18        2.12297   0.00000   0.00000   0.00001   0.00001   2.12297
   A19        2.05029   0.00000   0.00000   0.00000   0.00000   2.05029
   A20        2.05665   0.00000   0.00000   0.00000   0.00000   2.05666
   A21        2.17624   0.00000   0.00000   0.00000   0.00000   2.17624
   A22        2.06299   0.00000   0.00000   0.00000   0.00000   2.06299
   A23        2.07370   0.00000   0.00000   0.00000   0.00000   2.07370
   A24        2.05100   0.00000   0.00000   0.00000   0.00000   2.05100
   A25        1.90511   0.00000   0.00000   0.00000   0.00000   1.90511
   A26        1.90967   0.00000   0.00000   0.00000   0.00000   1.90967
   A27        1.78141   0.00000   0.00000   0.00000   0.00000   1.78141
   A28        2.11381   0.00000   0.00000   0.00000   0.00000   2.11381
   A29        1.85337   0.00000   0.00000   0.00000   0.00000   1.85337
   A30        1.87037   0.00000   0.00000   0.00000   0.00000   1.87037
    D1        0.00527   0.00000   0.00000   0.00000   0.00000   0.00527
    D2       -3.14108   0.00000   0.00000   0.00000   0.00000  -3.14108
    D3       -3.14115   0.00000   0.00000   0.00001   0.00001  -3.14115
    D4       -0.00432   0.00000   0.00000   0.00001   0.00001  -0.00431
    D5        0.01098   0.00000   0.00000   0.00001   0.00001   0.01099
    D6       -3.10307   0.00000   0.00000   0.00001   0.00001  -3.10307
    D7       -3.12580   0.00000   0.00000   0.00000   0.00000  -3.12579
    D8        0.04334   0.00000   0.00000   0.00000   0.00000   0.04334
    D9       -0.00979   0.00000   0.00000   0.00000   0.00000  -0.00980
   D10        3.13843   0.00000   0.00000  -0.00001  -0.00001   3.13842
   D11        3.13656   0.00000   0.00000   0.00000   0.00000   3.13655
   D12        0.00159   0.00000   0.00000   0.00000   0.00000   0.00159
   D13        3.14026   0.00000   0.00000   0.00000   0.00000   3.14026
   D14       -0.00288   0.00000   0.00000   0.00003   0.00003  -0.00285
   D15       -0.00602   0.00000   0.00000   0.00000   0.00000  -0.00602
   D16        3.13402   0.00000   0.00000   0.00003   0.00003   3.13405
   D17       -0.00200   0.00000   0.00000   0.00000   0.00000  -0.00200
   D18       -3.13180   0.00000   0.00000   0.00000   0.00000  -3.13180
   D19        3.13283   0.00000   0.00000   0.00000   0.00000   3.13283
   D20        0.00303   0.00000   0.00000   0.00000   0.00000   0.00303
   D21        0.01733   0.00000   0.00000   0.00001   0.00001   0.01734
   D22        3.13381   0.00000   0.00000   0.00000   0.00000   3.13381
   D23       -3.13591   0.00000   0.00000   0.00001   0.00001  -3.13590
   D24       -0.01944   0.00000   0.00000   0.00001   0.00001  -0.01944
   D25       -0.02186   0.00000   0.00000  -0.00001  -0.00001  -0.02188
   D26        3.09093   0.00000   0.00000  -0.00001  -0.00001   3.09092
   D27       -3.13756   0.00000   0.00000  -0.00001  -0.00001  -3.13757
   D28       -0.02477   0.00000   0.00000  -0.00001  -0.00001  -0.02477
   D29        0.16147   0.00000   0.00000   0.00000   0.00000   0.16147
   D30        2.83669   0.00000   0.00000   0.00000   0.00000   2.83668
   D31       -3.00671   0.00000   0.00000  -0.00001  -0.00001  -3.00672
   D32       -0.33149   0.00000   0.00000  -0.00001  -0.00001  -0.33150
   D33       -2.59683   0.00000   0.00000  -0.00001  -0.00001  -2.59684
   D34       -0.24725   0.00000   0.00000  -0.00001  -0.00001  -0.24725
   D35        1.72998   0.00000   0.00000  -0.00001  -0.00001   1.72997
   D36        0.57242   0.00000   0.00000  -0.00001  -0.00001   0.57241
   D37        2.92200   0.00000   0.00000  -0.00001  -0.00001   2.92199
   D38       -1.38396   0.00000   0.00000  -0.00001  -0.00001  -1.38397
         Item               Value     Threshold  Converged?
 Maximum Force            0.000005     0.000015     YES
 RMS     Force            0.000001     0.000010     YES
 Maximum Displacement     0.000063     0.000060     NO 
 RMS     Displacement     0.000011     0.000040     YES
 Predicted change in Energy=-6.292051D-11
 GradGradGradGradGradGradGradGradGradGradGradGradGradGradGradGradGradGrad

                          Input orientation:                          
 ---------------------------------------------------------------------
 Center     Atomic      Atomic             Coordinates (Angstroms)
 Number     Number       Type             X           Y           Z
 ---------------------------------------------------------------------
      1          6           0        0.498092   -0.592641    0.041507
      2          6           0        1.669234    0.124762   -0.001324
      3          6           0        1.655660    1.514351   -0.009478
      4          6           0        0.461175    2.182077    0.013897
      5          6           0       -0.764683    1.493042    0.043859
      6          6           0       -0.711476    0.081464    0.070621
      7          1           0        0.518122   -1.672427    0.047949
      8          1           0        2.592879    2.049645   -0.040525
      9          1           0        0.448370    3.264074   -0.001590
     10          7           0        2.944099   -0.581979   -0.032702
     11          8           0        3.956133    0.089069   -0.071673
     12          8           0        2.920044   -1.794616   -0.016487
     13          7           0       -1.928116    2.184170    0.075578
     14          1           0       -1.893771    3.177937   -0.065221
     15          1           0       -2.783465    1.708014   -0.169008
     16         16           0       -2.167259   -0.892888    0.184969
     17          8           0       -3.240021   -0.220687   -0.498240
     18          8           0       -1.849936   -2.255914   -0.100385
     19          1           0       -2.455733   -0.817578    1.508567
 ---------------------------------------------------------------------
                    Distance matrix (angstroms):
                    1          2          3          4          5
     1  C    0.000000
     2  C    1.374072   0.000000
     3  C    2.404574   1.389679   0.000000
     4  C    2.775101   2.385830   1.368649   0.000000
     5  C    2.438171   2.792523   2.421025   1.406554   0.000000
     6  C    1.385035   2.382191   2.768198   2.406430   1.412834
     7  H    1.079991   2.134800   3.384205   3.855075   3.415523
     8  H    3.372911   2.135376   1.079760   2.136507   3.404430
     9  H    3.857276   3.368351   2.125827   1.082183   2.147118
    10  N    2.447155   1.457994   2.460734   3.715789   4.250486
    11  O    3.526412   2.288259   2.706930   4.074646   4.926519
    12  O    2.704432   2.291018   3.542312   4.675580   4.938577
    13  N    3.687591   4.145842   3.646827   2.390088   1.353603
    14  H    4.466504   4.692650   3.920343   2.558078   2.031160
    15  H    4.013222   4.728777   4.446211   3.284186   2.041325
    16  S    2.686044   3.973537   4.521872   4.048869   2.771244
    17  O    3.795150   4.946417   5.216986   4.442343   3.059091
    18  O    2.880945   4.249939   5.149016   5.005003   3.905541
    19  H    3.305745   4.492564   4.964465   4.443009   3.216207
                    6          7          8          9         10
     6  C    0.000000
     7  H    2.142092   0.000000
     8  H    3.847707   4.262189   0.000000
     9  H    3.388136   4.937241   2.464806   0.000000
    10  N    3.716727   2.661004   2.654969   4.584948   0.000000
    11  O    4.669784   3.864853   2.388156   4.731803   1.214923
    12  O    4.088423   2.405890   3.858232   5.630251   1.212984
    13  N    2.429323   4.567076   4.524486   2.611481   5.603730
    14  H    3.317291   5.418124   4.626411   2.344588   6.127235
    15  H    2.645038   4.730215   5.388719   3.590837   6.169898
    16  S    1.755489   2.799595   5.600737   4.914942   5.125429
    17  O    2.609298   4.065650   6.275877   5.098475   6.212132
    18  O    2.605507   2.443391   6.187085   5.980153   5.078327
    19  H    2.432776   3.421694   6.009088   5.232043   5.620427
                   11         12         13         14         15
    11  O    0.000000
    12  O    2.150534   0.000000
    13  N    6.247841   6.272469   0.000000
    14  H    6.615325   6.921089   1.004279   0.000000
    15  H    6.932001   6.694900   1.009043   1.721337   0.000000
    16  S    6.206935   5.170527   3.088275   4.087665   2.696239
    17  O    7.215437   6.376185   2.798875   3.681106   2.009161
    18  O    6.261805   4.792967   4.444257   5.434142   4.072949
    19  H    6.665673   5.672686   3.367838   4.330907   3.049637
                   16         17         18         19
    16  S    0.000000
    17  O    1.438556   0.000000
    18  O    1.428272   2.496552   0.000000
    19  H    1.356762   2.235769   2.241546   0.000000
 Stoichiometry    C6H6N2O4S
 Framework group  C1[X(C6H6N2O4S)]
 Deg. of freedom    51
 Full point group                 C1      NOp   1
 Largest Abelian subgroup         C1      NOp   1
 Largest concise Abelian subgroup C1      NOp   1
                         Standard orientation:                         
 ---------------------------------------------------------------------
 Center     Atomic      Atomic             Coordinates (Angstroms)
 Number     Number       Type             X           Y           Z
 ---------------------------------------------------------------------
      1          6           0        0.498093   -0.592640    0.041507
      2          6           0        1.669235    0.124762   -0.001324
      3          6           0        1.655662    1.514351   -0.009478
      4          6           0        0.461176    2.182078    0.013897
      5          6           0       -0.764682    1.493043    0.043859
      6          6           0       -0.711475    0.081465    0.070621
      7          1           0        0.518123   -1.672426    0.047949
      8          1           0        2.592880    2.049645   -0.040525
      9          1           0        0.448372    3.264074   -0.001590
     10          7           0        2.944099   -0.581979   -0.032702
     11          8           0        3.956134    0.089069   -0.071673
     12          8           0        2.920044   -1.794616   -0.016487
     13          7           0       -1.928115    2.184171    0.075578
     14          1           0       -1.893769    3.177938   -0.065221
     15          1           0       -2.783464    1.708016   -0.169008
     16         16           0       -2.167259   -0.892887    0.184968
     17          8           0       -3.240020   -0.220686   -0.498240
     18          8           0       -1.849935   -2.255913   -0.100385
     19          1           0       -2.455733   -0.817577    1.508567
 ---------------------------------------------------------------------
 Rotational constants (GHZ):      1.3097650      0.4811065      0.3557328
 Basis read from rwf:  (5D, 7F)
 There are   556 symmetry adapted basis functions of A   symmetry.
 Integral buffers will be    131072 words long.
 Raffenetti 2 integral format.
 Two-electron integral symmetry is turned on.
   556 basis functions,   853 primitive gaussians,   634 cartesian basis functions
    52 alpha electrons       52 beta electrons
       nuclear repulsion energy       923.9387223360 Hartrees.
 NAtoms=   19 NActive=   19 NUniq=   19 SFac= 7.50D-01 NAtFMM=   80 NAOKFM=F Big=F
 One-electron integrals computed using PRISM.
 NBasis=   556 RedAO= T  NBF=   556
 NBsUse=   553 1.00D-06 NBFU=   553
 Initial guess read from the read-write file.
 B after Tr=     0.000000    0.000000    0.000000
         Rot=    1.000000    0.000000    0.000000    0.000000 Ang=   0.00 deg.
 Initial guess orbital symmetries:
       Occupied  (A) (A) (A) (A) (A) (A) (A) (A) (A) (A) (A) (A)
                 (A) (A) (A) (A) (A) (A) (A) (A) (A) (A) (A) (A)
                 (A) (A) (A) (A) (A) (A) (A) (A) (A) (A) (A) (A)
                 (A) (A) (A) (A) (A) (A) (A) (A) (A) (A) (A) (A)
                 (A) (A) (A) (A)
       Virtual   (A) (A) (A) (A) (A) (A) (A) (A) (A) (A) (A) (A)
                 (A) (A) (A) (A) (A) (A) (A) (A) (A) (A) (A) (A)
                 (A) (A) (A) (A) (A) (A) (A) (A) (A) (A) (A) (A)
                 (A) (A) (A) (A) (A) (A) (A) (A) (A) (A) (A) (A)
                 (A) (A) (A) (A) (A) (A) (A) (A) (A) (A) (A) (A)
                 (A) (A) (A) (A) (A) (A) (A) (A) (A) (A) (A) (A)
                 (A) (A) (A) (A) (A) (A) (A) (A) (A) (A) (A) (A)
                 (A) (A) (A) (A) (A) (A) (A) (A) (A) (A) (A) (A)
                 (A) (A) (A) (A) (A) (A) (A) (A) (A) (A) (A) (A)
                 (A) (A) (A) (A) (A) (A) (A) (A) (A) (A) (A) (A)
                 (A) (A) (A) (A) (A) (A) (A) (A) (A) (A) (A) (A)
                 (A) (A) (A) (A) (A) (A) (A) (A) (A) (A) (A) (A)
                 (A) (A) (A) (A) (A) (A) (A) (A) (A) (A) (A) (A)
                 (A) (A) (A) (A) (A) (A) (A) (A) (A) (A) (A) (A)
                 (A) (A) (A) (A) (A) (A) (A) (A) (A) (A) (A) (A)
                 (A) (A) (A) (A) (A) (A) (A) (A) (A) (A) (A) (A)
                 (A) (A) (A) (A) (A) (A) (A) (A) (A) (A) (A) (A)
                 (A) (A) (A) (A) (A) (A) (A) (A) (A) (A) (A) (A)
                 (A) (A) (A) (A) (A) (A) (A) (A) (A) (A) (A) (A)
                 (A) (A) (A) (A) (A) (A) (A) (A) (A) (A) (A) (A)
                 (A) (A) (A) (A) (A) (A) (A) (A) (A) (A) (A) (A)
                 (A) (A) (A) (A) (A) (A) (A) (A) (A) (A) (A) (A)
                 (A) (A) (A) (A) (A) (A) (A) (A) (A) (A) (A) (A)
                 (A) (A) (A) (A) (A) (A) (A) (A) (A) (A) (A) (A)
                 (A) (A) (A) (A) (A) (A) (A) (A) (A) (A) (A) (A)
                 (A) (A) (A) (A) (A) (A) (A) (A) (A) (A) (A) (A)
                 (A) (A) (A) (A) (A) (A) (A) (A) (A) (A) (A) (A)
                 (A) (A) (A) (A) (A) (A) (A) (A) (A) (A) (A) (A)
                 (A) (A) (A) (A) (A) (A) (A) (A) (A) (A) (A) (A)
                 (A) (A) (A) (A) (A) (A) (A) (A) (A) (A) (A) (A)
                 (A) (A) (A) (A) (A) (A) (A) (A) (A) (A) (A) (A)
                 (A) (A) (A) (A) (A) (A) (A) (A) (A) (A) (A) (A)
                 (A) (A) (A) (A) (A) (A) (A) (A) (A) (A) (A) (A)
                 (A) (A) (A) (A) (A) (A) (A) (A) (A) (A) (A) (A)
                 (A) (A) (A) (A) (A) (A) (A) (A) (A) (A) (A) (A)
                 (A) (A) (A) (A) (A) (A) (A) (A) (A) (A) (A) (A)
                 (A) (A) (A) (A) (A) (A) (A) (A) (A) (A) (A) (A)
                 (A) (A) (A) (A) (A) (A) (A) (A) (A) (A) (A) (A)
                 (A) (A) (A) (A) (A) (A) (A) (A) (A) (A) (A) (A)
                 (A) (A) (A) (A) (A) (A) (A) (A) (A) (A) (A) (A)
                 (A) (A) (A) (A) (A) (A) (A) (A) (A) (A) (A) (A)
                 (A) (A) (A) (A) (A) (A) (A) (A) (A)
 FoFJK:  IHMeth= 1 ICntrl=     0 DoSepK=T KAlg= 1 I1Cent= 0 FoldK=F
 LinEq1:  Iter=  0 NonCon=     1 RMS=1.21D-07 Max=5.21D-06
 AX will form     1 AO Fock derivatives at one time.
 FoFJK:  IHMeth= 1 ICntrl=     0 DoSepK=T KAlg= 1 I1Cent= 0 FoldK=F
 LinEq1:  Iter=  1 NonCon=     1 RMS=1.88D-08 Max=9.65D-07
 FoFJK:  IHMeth= 1 ICntrl=     0 DoSepK=T KAlg= 1 I1Cent= 0 FoldK=F
 LinEq1:  Iter=  2 NonCon=     1 RMS=1.64D-08 Max=8.94D-07
 FoFJK:  IHMeth= 1 ICntrl=     0 DoSepK=T KAlg= 1 I1Cent= 0 FoldK=F
 LinEq1:  Iter=  3 NonCon=     1 RMS=8.47D-09 Max=3.83D-07
 FoFJK:  IHMeth= 1 ICntrl=     0 DoSepK=T KAlg= 1 I1Cent= 0 FoldK=F
 LinEq1:  Iter=  4 NonCon=     1 RMS=5.26D-09 Max=2.23D-07
 FoFJK:  IHMeth= 1 ICntrl=     0 DoSepK=T KAlg= 1 I1Cent= 0 FoldK=F
 LinEq1:  Iter=  5 NonCon=     1 RMS=3.23D-09 Max=1.76D-07
 FoFJK:  IHMeth= 1 ICntrl=     0 DoSepK=T KAlg= 1 I1Cent= 0 FoldK=F
 LinEq1:  Iter=  6 NonCon=     1 RMS=2.52D-09 Max=1.80D-07
 FoFJK:  IHMeth= 1 ICntrl=     0 DoSepK=T KAlg= 1 I1Cent= 0 FoldK=F
 LinEq1:  Iter=  7 NonCon=     1 RMS=1.43D-09 Max=5.09D-08
 FoFJK:  IHMeth= 1 ICntrl=     0 DoSepK=T KAlg= 1 I1Cent= 0 FoldK=F
 LinEq1:  Iter=  8 NonCon=     1 RMS=8.58D-10 Max=3.70D-08
 FoFJK:  IHMeth= 1 ICntrl=     0 DoSepK=T KAlg= 1 I1Cent= 0 FoldK=F
 LinEq1:  Iter=  9 NonCon=     1 RMS=3.49D-10 Max=1.53D-08
 FoFJK:  IHMeth= 1 ICntrl=     0 DoSepK=T KAlg= 1 I1Cent= 0 FoldK=F
 LinEq1:  Iter= 10 NonCon=     1 RMS=2.17D-10 Max=9.90D-09
 FoFJK:  IHMeth= 1 ICntrl=     0 DoSepK=T KAlg= 1 I1Cent= 0 FoldK=F
 LinEq1:  Iter= 11 NonCon=     0 RMS=1.17D-10 Max=4.01D-09
 Linear equations converged to 6.347D-10 6.347D-09 after    11 iterations.
 FoFJK:  IHMeth= 1 ICntrl=     0 DoSepK=T KAlg= 1 I1Cent= 0 FoldK=F
 SCF Done:  E(RCAM-B3LYP) =  -1040.74442183     a.u. after    2 cycles
            Convg  =    0.3967D-08                    13 Fock formations.
              S**2 =  0.0000                  -V/T =  2.0030
 Calling FoFJK, ICntrl=      2127 FMM=F ISym2X=0 I1Cent= 0 IOpClX= 0 NMat=1 NMatS=1 NMatT=0.
 FoFJK:  IHMeth= 1 ICntrl=  2127 DoSepK=T KAlg= 1 I1Cent= 0 FoldK=F
 ***** Axes restored to original set *****
 -------------------------------------------------------------------
 Center     Atomic                   Forces (Hartrees/Bohr)
 Number     Number              X              Y              Z
 -------------------------------------------------------------------
      1        6          -0.000000771   -0.000000088    0.000000287
      2        6           0.000000597    0.000000243    0.000000820
      3        6           0.000000295   -0.000000181   -0.000000157
      4        6          -0.000000378    0.000000082   -0.000000124
      5        6           0.000000564   -0.000000202    0.000000231
      6        6           0.000000195    0.000000618    0.000000068
      7        1           0.000000502    0.000000047   -0.000000232
      8        1          -0.000000174    0.000000289   -0.000000275
      9        1          -0.000000228    0.000000003    0.000000107
     10        7          -0.000000243    0.000000281   -0.000005211
     11        8           0.000000117    0.000000592    0.000001061
     12        8           0.000000049    0.000000047    0.000000975
     13        7          -0.000000443   -0.000000164    0.000000139
     14        1          -0.000000231   -0.000000155    0.000000484
     15        1          -0.000000185   -0.000000265    0.000000702
     16       16           0.000001215   -0.000001112    0.000000724
     17        8          -0.000001192    0.000000404   -0.000000170
     18        8           0.000000031   -0.000000080    0.000000236
     19        1           0.000000281   -0.000000358    0.000000335
 -------------------------------------------------------------------
 Cartesian Forces:  Max     0.000005211 RMS     0.000000834

 GradGradGradGradGradGradGradGradGradGradGradGradGradGradGradGradGradGrad
 Berny optimization.
 Using GEDIIS/GDIIS optimizer.
 Internal  Forces:  Max     0.000001763 RMS     0.000000417
 Search for a local minimum.
 Step number   2 out of a maximum of   97
 All quantities printed in internal units (Hartrees-Bohrs-Radians)
 Mixed Optimization -- En-DIIS/RFO-DIIS
 Swaping is turned off.
 Update second derivatives using D2CorX and points    1    2
 DE=  2.24D-10 DEPred=-6.29D-11 R=-3.56D+00
 Trust test=-3.56D+00 RLast= 6.21D-05 DXMaxT set to 1.50D-01
     Eigenvalues ---    0.00515   0.00950   0.01423   0.01684   0.01911
     Eigenvalues ---    0.02069   0.02207   0.02260   0.02291   0.02323
     Eigenvalues ---    0.02355   0.02396   0.03056   0.05412   0.08881
     Eigenvalues ---    0.08943   0.14572   0.15999   0.16000   0.16000
     Eigenvalues ---    0.16000   0.16151   0.22375   0.22646   0.23499
     Eigenvalues ---    0.24358   0.24678   0.24715   0.24997   0.25000
     Eigenvalues ---    0.25000   0.25055   0.25889   0.29474   0.35723
     Eigenvalues ---    0.35994   0.36015   0.37099   0.40728   0.42580
     Eigenvalues ---    0.45834   0.46044   0.46795   0.46945   0.49254
     Eigenvalues ---    0.50554   0.54286   0.90891   0.97699   0.98598
     Eigenvalues ---    1.063601000.000001000.000001000.000001000.00000
     Eigenvalues --- 1000.000001000.000001000.000001000.000001000.00000
     Eigenvalues --- 1000.000001000.000001000.000001000.000001000.00000
     Eigenvalues --- 1000.000001000.000001000.000001000.000001000.00000
     Eigenvalues --- 1000.000001000.000001000.000001000.000001000.00000
     Eigenvalues --- 1000.000001000.000001000.000001000.000001000.00000
     Eigenvalues --- 1000.000001000.000001000.000001000.000001000.00000
     Eigenvalues --- 1000.000001000.00000
 En-DIIS/RFO-DIIS IScMMF=        0 using points:     2    1
 RFO step:  Lambda= 0.00000000D+00.
 DIIS coeffs:      0.60503      0.39497
 Iteration  1 RMS(Cart)=  0.00003699 RMS(Int)=  0.00000000
 Iteration  2 RMS(Cart)=  0.00000000 RMS(Int)=  0.00000000
 Variable       Old X    -DE/DX   Delta X   Delta X   Delta X     New X
                                  (DIIS)     (GDIIS)  (Total)
    R1        2.59662   0.00000   0.00000   0.00000   0.00000   2.59662
    R2        2.61734   0.00000   0.00000   0.00000   0.00000   2.61733
    R3        2.04089   0.00000   0.00000   0.00000   0.00000   2.04089
    R4        2.62611   0.00000   0.00000   0.00000   0.00000   2.62611
    R5        2.75521   0.00000   0.00000   0.00000   0.00000   2.75521
    R6        2.58637   0.00000   0.00000   0.00000   0.00000   2.58637
    R7        2.04045   0.00000   0.00000   0.00000   0.00000   2.04045
    R8        2.65800   0.00000   0.00000  -0.00001  -0.00001   2.65799
    R9        2.04503   0.00000   0.00000   0.00000   0.00000   2.04503
   R10        2.66987   0.00000   0.00000  -0.00001  -0.00001   2.66986
   R11        2.55794   0.00000   0.00000   0.00000   0.00000   2.55794
   R12        3.31739   0.00000   0.00000   0.00002   0.00001   3.31741
   R13        2.29587   0.00000   0.00000   0.00000   0.00000   2.29587
   R14        2.29221   0.00000   0.00000   0.00000   0.00000   2.29221
   R15        1.89781   0.00000   0.00000   0.00000   0.00000   1.89781
   R16        1.90682   0.00000   0.00000   0.00000   0.00000   1.90681
   R17        2.71848   0.00000   0.00000   0.00002   0.00002   2.71849
   R18        2.69904   0.00000   0.00000   0.00000   0.00000   2.69904
   R19        2.56391   0.00000   0.00000   0.00003   0.00003   2.56393
    A1        2.08390   0.00000   0.00000   0.00000   0.00000   2.08390
    A2        2.10178   0.00000   0.00000  -0.00002  -0.00002   2.10176
    A3        2.09750   0.00000   0.00000   0.00002   0.00002   2.09752
    A4        2.11055   0.00000   0.00000   0.00000   0.00000   2.11055
    A5        2.08616   0.00000   0.00000   0.00000   0.00000   2.08616
    A6        2.08647   0.00000   0.00000   0.00000   0.00000   2.08647
    A7        2.09009   0.00000   0.00000   0.00000   0.00000   2.09009
    A8        2.07992   0.00000   0.00000   0.00001   0.00001   2.07993
    A9        2.11316   0.00000   0.00000  -0.00001  -0.00001   2.11315
   A10        2.11998   0.00000   0.00000   0.00000   0.00000   2.11998
   A11        2.09194   0.00000   0.00000   0.00000   0.00000   2.09194
   A12        2.07120   0.00000   0.00000   0.00000   0.00000   2.07120
   A13        2.04544   0.00000   0.00000   0.00001   0.00001   2.04545
   A14        2.09378   0.00000   0.00000  -0.00001  -0.00001   2.09377
[...]
 00202609,-0.01624373,0.06996290,-0.00016721,-0.04652293,-0.18610077,0.
 00070397,-0.03914976,0.68767101,-0.00237187,-0.00095987,0.00360252,0.0
 0038124,0.00249151,-0.00687711,0.00264818,-0.00246469,0.00138907,0.000
 46334,0.00192610,-0.07468653,-0.00033972,-0.00936186,0.18066039,-0.274
 42467,0.12114135,0.00719127,-0.07025963,-0.03074894,0.00293050,-0.0208
 4539,0.03774901,-0.00000783,0.03769278,-0.02528425,0.00026534,-0.14006
 559,-0.02285822,0.00336590,0.60221891,0.07389782,-0.17944375,-0.001909
 66,0.02850630,0.04737278,-0.00124567,0.01674385,-0.04103121,-0.0000991
 4,-0.05479148,-0.02047300,0.00346305,0.01268902,-0.27050773,0.00600678
 ,-0.07591025,0.62097697,0.00802723,-0.00128693,-0.05922825,0.00188372,
 -0.00098949,0.00941235,-0.00031445,-0.00007368,-0.00373104,0.00033353,
 0.00149198,0.00831515,0.00071075,0.00557791,-0.06998194,-0.02234580,-0
 .01213675,0.13803575,-0.05731056,0.00293412,0.00077078,0.00729388,-0.0
 2584302,0.00030793,-0.00499095,-0.00248092,0.00034678,-0.00102199,0.00
 016848,0.00003154,-0.00465539,0.00137565,0.00043735,0.00409136,0.02542
 331,-0.00040324,0.05612726,0.00298865,-0.35022241,0.00284920,-0.000281
 18,-0.01037064,-0.00005327,-0.00193021,0.00010055,0.00004709,-0.000094
 63,0.00068732,-0.00001899,0.00133347,0.00042513,-0.00009321,0.00210575
 ,-0.00828654,-0.00006906,-0.00513908,0.37133437,0.00169516,0.00215366,
 -0.04404906,-0.00057067,0.00090814,0.00753258,0.00036012,0.00047712,0.
 00542485,0.00033980,-0.00004260,-0.00102681,0.00011220,-0.00029937,0.0
 0656900,-0.00026854,-0.00038686,0.00522738,-0.00154710,-0.00260582,0.0
 2946991,0.00099909,0.00122049,0.00011263,0.00463075,-0.00107660,0.0000
 6294,-0.27454252,-0.12868080,0.00755102,-0.01590393,-0.01335779,0.0007
 9898,-0.00258557,0.00253356,0.00031384,0.00017349,0.00098806,-0.000020
 29,0.00035032,0.00014246,-0.00002085,0.29038584,0.00091318,-0.00628970
 ,0.00005260,-0.02787338,-0.00922415,0.00089922,-0.12706909,-0.13529629
 ,0.00432876,0.01497262,0.01286036,-0.00054686,0.00366104,-0.00129160,-
 0.00003912,0.00115173,-0.00033251,-0.00001767,-0.00137212,-0.00024879,
 0.00008341,0.13680394,0.13637184,0.00029536,-0.00002654,0.00498042,0.0
 0015974,-0.00007353,0.00618396,0.00762086,0.00442809,-0.04462221,0.000
 30197,0.00049103,0.00608123,0.00022663,0.00017177,0.00918895,-0.000087
 72,-0.00018441,-0.00073375,-0.00001638,0.00002890,0.00010551,-0.008536
 67,-0.00474324,0.02895689,-0.00169937,0.00010923,0.00001030,-0.0040270
 2,0.00176016,0.00026954,0.00319321,0.03007779,-0.00043087,-0.05975142,
 0.00119196,0.00021844,0.00267655,-0.02810250,0.00049950,-0.00379563,-0
 .00208856,0.00032246,0.00002260,0.00000059,-0.00001079,0.00112134,-0.0
 0044190,-0.00014512,0.06048758,-0.00040413,0.00053345,0.00001656,0.002
 60405,0.00145178,0.00001349,-0.00067480,-0.01156755,0.00020211,0.00070
 506,-0.34063942,0.00447332,0.00366262,-0.01325653,0.00023261,-0.002845
 02,-0.00020291,0.00014576,-0.00000363,-0.00004546,-0.00000218,0.000024
 36,0.00084472,-0.00008811,-0.00291770,0.36127272,-0.00031615,-0.000029
 48,-0.00094250,0.00039227,0.00028374,0.00771709,0.00027627,-0.00077825
 ,0.00308195,-0.00025395,0.00453385,-0.03499063,0.00059919,0.00096289,0
 .00432335,0.00028903,-0.00012774,0.00473540,-0.00002446,-0.00000454,-0
 .00034978,-0.00015063,-0.00006248,-0.00518116,-0.00057827,-0.00484148,
 0.02403242,-0.04903340,0.01306392,0.00107616,-0.12827434,0.01053881,0.
 00105300,-0.00647070,0.03287378,-0.00032336,0.01321757,-0.00408358,0.0
 0034278,-0.01275176,0.00585477,0.00065904,0.00430186,-0.01242370,0.000
 40752,0.00076097,0.00003783,-0.00014890,-0.00083842,-0.00436666,-0.000
 09848,0.00102004,-0.00071308,0.00008714,0.75513673,0.01014154,0.020861
 59,-0.00020280,0.00737981,-0.12120995,0.00006996,0.03733670,-0.0160527
 1,-0.00098166,-0.00535318,-0.00786775,0.00007985,0.00341350,-0.0078907
 7,-0.00020736,-0.01312987,0.00230013,0.00035538,-0.00309573,-0.0025094
 3,-0.00005762,-0.00058972,-0.00143823,0.00003856,0.00132922,-0.0003236
 6,-0.00001454,0.12581518,0.92274066,0.00142469,-0.00084273,-0.00297163
 ,0.00104418,-0.00007440,-0.08412360,-0.00006436,-0.00105497,-0.0033987
 3,-0.00040701,0.00030090,0.00707214,0.00020569,-0.00019155,-0.00133756
 ,0.00003212,0.00059307,0.00818735,-0.00010229,0.00006780,-0.00507799,-
 0.00010522,0.00014414,-0.00380390,0.00001897,0.00004776,0.00119877,-0.
 01690656,-0.01209166,0.25128228,0.00069714,0.00786874,0.00008764,-0.07
 165055,-0.01984316,0.00310611,-0.00016158,-0.00726592,0.00013993,-0.00
 355197,0.00029013,-0.00009911,0.00367212,-0.00379855,-0.00015430,-0.00
 443249,0.00229145,0.00015324,0.00148920,0.00011354,-0.00002622,-0.0028
 3986,0.00247148,0.00008977,-0.00020871,0.00020348,-0.00001212,-0.44846
 391,-0.17869589,0.01326644,0.52097110,0.00004271,-0.00157889,-0.000036
 39,-0.00347978,0.01918267,0.00012418,0.00539383,-0.00995925,-0.0000594
 9,-0.00129237,0.00271429,-0.00007252,0.00166235,0.00019200,-0.00009458
 ,0.00198514,0.00158034,-0.00001771,0.00157420,0.00021427,-0.00002206,0
 .00351698,0.00190655,-0.00010607,-0.00014439,-0.00000050,-0.00000721,-
 0.17707478,-0.23840091,0.00725595,0.25817028,0.31427395,0.00007656,-0.
 00014296,0.00343559,0.00293171,0.00064270,0.02133205,-0.00002868,0.000
 31712,0.00108770,0.00013895,-0.00004662,-0.00051334,-0.00005482,0.0000
 9022,0.00021283,0.00011662,-0.00011463,-0.00131584,-0.00006721,-0.0000
 0013,0.00058309,0.00006000,-0.00008894,-0.00017594,0.00000377,-0.00000
 728,-0.00002645,0.01329223,0.00737962,-0.08413864,-0.01818718,-0.01134
 801,0.03145882,-0.00575960,0.00192201,0.00022101,0.00351962,0.04418331
 ,0.00003584,-0.00514653,-0.00359710,0.00029794,-0.00205471,0.00244013,
 -0.00006576,0.00256277,0.00031898,-0.00010494,0.00095873,0.00163331,-0
 .00006120,-0.00180003,0.00388382,0.00006664,0.00001155,0.00073105,0.00
 001433,-0.00063694,0.00030890,-0.00002434,-0.13763757,0.01954204,0.001
 41294,0.00814465,-0.08946983,0.00174661,0.13946121,-0.01272796,-0.0030
 4153,0.00022685,0.02973370,-0.05512957,-0.00009728,0.00489234,0.003019
 77,-0.00013982,0.00335084,-0.00058596,-0.00000196,-0.00426078,0.002324
 85,0.00024566,0.00483763,-0.00187868,-0.00003161,0.00287010,0.00062168
 ,-0.00003919,-0.00086028,0.00173647,0.00001592,0.00058379,-0.00029854,
 0.00000409,0.01777215,-0.55639492,0.00554092,-0.06554129,-0.09013082,0
 .00344112,0.01681331,0.70276922,0.00032361,0.00000602,0.00100710,0.000
 25763,-0.00044180,0.02113796,0.00013769,0.00015339,0.00354995,0.000084
 23,-0.00006375,-0.00105396,-0.00002690,-0.00004906,0.00026815,-0.00009
 356,-0.00004287,-0.00064935,0.00003254,-0.00016548,-0.00005249,0.00003
 515,-0.00005277,0.00041948,-0.00000986,-0.00001615,-0.00055893,0.00134
 160,0.00525033,-0.08392015,0.00153388,0.00430901,0.02866635,-0.0035629
 9,-0.00886878,0.03124602,-0.00536647,-0.00557863,0.00020101,-0.0069579
 1,0.01776051,-0.00009197,0.01159235,-0.01952217,0.00030873,-0.07494735
 ,0.01963526,0.00147763,-0.29788367,0.09212354,0.00534857,0.01308233,0.
 02767671,0.00011152,0.00004425,-0.00043688,0.00002496,-0.00060230,0.00
 045858,0.00008834,0.00221809,0.00110741,-0.00037918,0.01188556,-0.0057
 7825,-0.00031253,-0.00416652,-0.00042580,0.00010211,-0.00228741,0.0043
 3413,0.00002877,0.76621554,-0.01141952,-0.00369631,-0.00047128,0.00917
 940,-0.00103156,-0.00025971,-0.00593542,-0.00424554,0.00080167,-0.0088
 1216,0.02038746,0.00141497,0.10363597,-0.19671502,-0.00710657,0.043583
 90,-0.03783753,-0.00158570,0.00138141,-0.00014317,0.00002930,-0.000729
 05,0.00066597,-0.00010923,-0.00078848,0.00202971,-0.00032927,-0.006492
 62,0.00322436,0.00028566,0.00279571,0.00063980,-0.00010844,0.00121083,
 -0.00163874,-0.00003796,0.04415722,0.83578610,0.00096446,0.00151296,0.
 00407495,0.00196009,-0.00392814,-0.00062971,-0.00349786,0.00319332,0.0
 0491667,0.00670904,0.00241963,0.01199457,-0.02316031,0.00785496,-0.047
 00805,-0.00249747,-0.00526985,0.00850755,-0.00010799,0.00005956,0.0000
 3423,-0.00017386,0.00012716,-0.00053633,0.00021706,0.00006461,-0.00294
 247,-0.00283423,0.00130262,-0.00047404,0.00100166,0.00023784,0.0000049
 6,0.00047226,-0.00092163,0.00001499,0.11166664,-0.01888719,0.06969086,
 0.00098033,0.00122549,0.00006873,-0.00037024,0.00008594,-0.00000340,0.
 00012987,-0.00050194,0.00003153,0.00103053,0.00226534,0.00025236,0.005
 07983,0.03540297,-0.00500062,-0.00510692,0.00154722,0.00002153,-0.0003
 3241,0.00008406,0.00002582,-0.00003309,-0.00000375,-0.00003707,-0.0008
 0023,-0.00136633,0.00004450,0.00024214,-0.00010613,0.00001320,-0.00012
 501,-0.00011670,0.00000235,-0.00001484,-0.00007536,-0.00000642,-0.0731
 4447,-0.02548661,-0.00603654,0.06600020,-0.00034067,-0.00091605,0.0000
 4856,-0.00087636,0.00154666,0.00003332,0.00103232,-0.00161118,-0.00048
 615,-0.00449031,0.00247126,-0.00075116,0.00330550,-0.01769515,0.002852
 18,0.00192785,0.00317775,0.00042974,0.00015728,0.00000593,-0.00002165,
 -0.00005095,0.00003232,0.00004984,0.00053120,0.00021312,0.00037400,0.0
 0124869,-0.00060966,0.00007247,-0.00047443,-0.00007561,0.00000075,-0.0
 0022485,0.00044065,-0.00002159,-0.01982336,-0.45094820,0.05515262,0.01
 515026,0.47216173,0.00045409,-0.00024106,0.00151323,-0.00059627,0.0004
 2202,0.00011675,0.00030182,-0.00045345,-0.00086690,-0.00118997,-0.0002
 8661,-0.00242638,0.00470840,-0.00590146,-0.00374909,0.00034810,0.00114
 525,0.00370692,0.00000133,-0.00001298,-0.00021462,0.00000118,0.0000053
 1,0.00019803,-0.00021296,-0.00006202,0.00063296,0.00061029,-0.00032348
 ,0.00007744,-0.00023898,-0.00003714,-0.00004828,-0.00009986,0.00020258
 ,-0.00003722,-0.00890520,0.07628283,-0.01424206,0.00316496,-0.06086671
 ,0.01719532,-0.00066367,-0.00032460,0.00032841,0.00128188,-0.00174642,
 0.00000050,-0.00203135,0.00067693,0.00004202,0.00178012,0.00388162,-0.
 00079845,-0.03111211,-0.00942018,-0.00642056,0.00050915,-0.00345007,0.
 00053554,0.00024548,0.00005638,-0.00005888,-0.00017418,0.00018746,0.00
 002941,-0.00001265,-0.00018718,0.00001162,-0.00169067,0.00087728,0.000
 06493,0.00059526,0.00009851,-0.00003028,0.00032429,-0.00065364,-0.0000
 0941,-0.33121625,-0.14606191,-0.08599130,0.00816840,0.00362435,0.00249
 121,0.35555049,0.00061220,-0.00050779,-0.00016015,0.00058963,-0.002739
 34,0.00004003,-0.00121965,0.00355363,-0.00034812,0.00719531,-0.0029252
 7,-0.00068959,0.01034343,0.02222328,0.00613401,-0.00270086,-0.00252445
 ,-0.00021225,0.00031999,0.00004551,-0.00002878,0.00020649,-0.00015812,
 0.00008336,0.00000785,0.00015136,0.00003194,-0.00159914,0.00093957,0.0
 0007863,0.00038277,-0.00003070,-0.00002201,0.00026709,-0.00079971,0.00
 000326,-0.14525580,-0.15742553,-0.04159379,-0.02531152,-0.00733669,-0.
 00864407,0.15148004,0.14953326,-0.00041447,-0.00048702,-0.00049264,-0.
 00061484,0.00134368,0.00008905,0.00154613,-0.00095661,0.00170989,-0.00
 075912,-0.00117902,0.00384111,0.01099504,-0.00009817,-0.00342565,0.000
 03464,0.00157469,-0.00154860,0.00003618,-0.00001785,0.00005886,0.00009
 367,-0.00006865,-0.00043785,-0.00015299,-0.00014810,-0.00064737,0.0008
 9656,-0.00038998,-0.00015449,-0.00031231,-0.00009178,0.00001953,-0.000
 14605,0.00025909,0.00000400,-0.10892380,-0.04727400,-0.03363149,0.0084
 3390,0.00328161,-0.00158278,0.09042354,0.04335577,0.03864091,-0.041931
 39,-0.00923834,0.00207451,0.00428704,0.01188289,-0.00078274,0.00613214
 ,-0.00566121,-0.00008976,-0.00732524,0.00184445,-0.00134164,0.03359363
 ,-0.02806227,-0.00054710,-0.12901118,-0.03494151,0.01773344,-0.0017523
 1,-0.00002087,0.00054350,-0.00031611,-0.00004437,0.00023668,0.00094525
 ,0.00129116,0.00004368,-0.00471667,0.00283491,0.00026611,0.00292021,-0
 .00054479,-0.00011595,0.00191078,-0.00180774,-0.00007927,-0.02526075,0
 .00431234,0.00307281,-0.00295503,-0.00134663,-0.00122354,0.00780636,0.
 01791856,0.00000526,0.70142386,-0.01234926,0.01731275,0.00073384,0.013
 69067,0.00276484,-0.00076232,0.00354648,-0.00508591,0.00003619,-0.0011
 7195,-0.00515489,0.00046515,-0.02331942,-0.01397848,0.00119199,-0.0367
 9154,-0.11031206,0.00714200,0.00595477,-0.00022417,0.00007631,-0.00016
 423,-0.00035497,-0.00003986,-0.00074053,-0.00011633,-0.00003590,-0.004
 34807,0.00912565,-0.00007837,0.00260832,-0.00196650,-0.00000517,0.0010
 6091,-0.00513280,0.00001523,-0.00114774,0.00268337,-0.00016854,0.00085
 435,-0.00038453,-0.00023066,0.00172087,-0.00881730,0.00145149,-0.24821
 787,0.96703543,0.00074543,0.00190561,-0.00172370,0.00017971,0.00022969
 ,0.00815008,0.00037528,-0.00059700,-0.00081242,-0.00112509,0.00018681,
 0.00593201,0.00351756,-0.00366784,0.00005368,0.01180881,0.00319768,-0.
 07548391,0.00045660,0.00029446,-0.00389855,-0.00005962,-0.00000421,-0.
 00065723,0.00008675,0.00008538,0.00007912,0.00032114,0.00021323,0.0021
 1717,0.00001927,-0.00010091,-0.00079998,-0.00003794,0.00001828,-0.0003
 1464,-0.00373158,-0.00262653,-0.00410299,-0.00120380,-0.00026829,-0.00
 034250,0.00205912,0.00751920,0.00300656,0.09811106,-0.00323985,0.63155
 607,-0.00099742,-0.00730993,-0.00247996,-0.00305326,-0.00134003,0.0017
 5136,-0.00210776,0.00272600,-0.00017551,0.00381854,-0.00060584,0.00094
 883,-0.00914943,0.00756241,0.00021917,-0.01752403,0.01912500,-0.016840
 15,0.00071269,-0.00020086,-0.00096079,0.00008036,-0.00003481,-0.000134
 86,-0.00030630,-0.00036991,-0.00006797,0.00168612,-0.00181156,0.000535
 78,-0.00175581,0.00020087,-0.00013288,-0.00077068,0.00064245,0.0000049
 5,0.00952960,-0.00365774,-0.00100068,0.00042135,0.00032486,0.00005480,
 -0.00704670,-0.00824449,-0.00093593,-0.37674744,0.18756706,-0.18698722
 ,0.39369072,0.00019895,-0.00140745,-0.00062133,-0.00146890,0.00264289,
 0.00049834,0.00138428,-0.00188264,-0.00000175,-0.00405641,0.00112222,-
 0.00026756,0.01439028,-0.00683034,0.00011882,-0.00783492,0.01218568,-0
 .00451132,-0.00116177,0.00003471,-0.00014173,-0.00001324,0.00006914,0.
 00007008,0.00033541,0.00035820,-0.00001982,0.00120764,-0.00172379,0.00
 013122,-0.00025326,0.00032240,-0.00005920,-0.00018811,0.00124024,-0.00
 003231,-0.01060539,-0.01054060,-0.00063886,-0.00339158,-0.00065352,-0.
 00113093,-0.00106127,0.00507031,-0.00065169,0.16789536,-0.19868953,0.1
 1275814,-0.19804009,0.19809632,-0.00240785,-0.00228271,0.00093165,-0.0
 0007445,0.00066150,-0.00104372,-0.00011246,0.00010638,0.00003719,0.000
 49185,-0.00058877,-0.00043211,-0.00245647,0.00258752,-0.00046585,-0.00
 054484,0.00630803,0.01148113,0.00025646,-0.00027560,0.00037871,0.00000
 961,-0.00004186,0.00004097,-0.00012022,-0.00013319,-0.00000807,0.00015
 446,-0.00009736,-0.00034381,-0.00040963,-0.00004903,0.00014669,-0.0001
 7313,-0.00009208,0.00009581,0.00302766,-0.00118490,0.00311958,0.000034
 93,0.00011001,0.00026066,-0.00198381,-0.00433406,-0.00443176,-0.191649
 87,0.12521475,-0.21976079,0.22020635,-0.12967400,0.19862032,-0.0025862
 5,0.00051017,-0.00027263,0.00182031,-0.00196705,0.00054394,-0.00086253
 ,-0.00005807,0.00004081,0.00125047,-0.00149842,0.00065142,-0.00871280,
 0.00364702,-0.00035842,0.00744651,-0.02295977,-0.00725706,0.00088987,-
 0.00263429,-0.00032359,0.00004419,-0.00017325,-0.00010128,-0.00031680,
 -0.00028786,0.00003003,0.00108671,0.00074820,-0.00005825,-0.00071925,-
 0.00028329,0.00001154,-0.00059515,-0.00034006,0.00001322,0.00440568,-0
 .00013626,-0.00049456,0.00057989,0.00019023,0.00022560,-0.00170035,-0.
 00356391,-0.00020642,-0.11281338,0.11397154,0.02855955,0.00683620,0.03
 489048,0.00267093,0.09604615,0.00543079,-0.00231498,-0.00057273,-0.003
 48312,0.00047871,0.00058337,-0.00003438,0.00010990,-0.00006699,0.00061
 759,-0.00218212,0.00041577,-0.00803946,0.00080059,-0.00098186,0.011557
 88,-0.02053448,-0.00516383,-0.00272114,-0.00123925,-0.00039065,0.00005
 649,0.00012421,-0.00005968,-0.00073045,-0.00036201,0.00002664,0.002406
 39,-0.00395212,0.00007393,-0.00105072,0.00091703,-0.00002262,-0.000729
 30,0.00247895,0.00002266,-0.00042821,-0.00102162,0.00006623,-0.0003096
 5,0.00016968,0.00012895,0.00040129,0.00188313,-0.00029050,0.12540902,-
 0.60260449,-0.11015507,-0.00240503,-0.00536351,-0.01022820,-0.13060595
 ,0.64217007,0.00086673,-0.00050260,0.00020303,-0.00035956,0.00023752,-
 0.00026587,0.00001607,0.00011167,0.00007467,0.00024592,-0.00025301,-0.
 00094252,0.00000473,-0.00001311,0.00162560,0.00077236,0.00098954,0.012
 13639,-0.00019357,0.00011167,-0.00062886,0.00000749,0.00001373,0.00000
 343,-0.00007707,-0.00001583,-0.00012618,0.00009688,-0.00038290,-0.0002
 3581,-0.00005809,0.00008889,0.00007419,-0.00001645,0.00021651,0.000159
 60,-0.00027649,0.00066033,0.00084691,0.00015374,-0.00000010,-0.0001603
 9,-0.00045854,-0.00070776,-0.00037333,0.03286557,-0.12220890,-0.119470
 57,-0.01078621,0.02017661,0.02105923,-0.02653489,0.12979767,0.08511171
 ,0.00234949,-0.00119043,0.00117081,-0.00146298,-0.00166840,-0.00125590
 ,-0.00103340,0.00121500,0.00016956,0.00129578,-0.00008003,-0.00094019,
 -0.00501469,0.00266718,0.00096139,-0.00500958,-0.00395670,0.01700171,-
 0.00016424,-0.00000855,0.00076811,0.00003905,0.00002824,0.00009448,-0.
 00012958,-0.00013740,0.00003335,0.00053974,-0.00085806,-0.00032883,-0.
 00041402,0.00018684,0.00013455,-0.00019013,0.00043666,-0.00000483,0.00
 285970,-0.00073700,-0.00026920,0.00024969,0.00013500,0.00010500,-0.000
 61349,-0.00142797,0.00000099,-0.05618977,-0.00272435,0.04690496,0.0026
 8325,0.00777254,-0.02691952,0.00790052,0.00465797,0.00373137,0.0523046
 7,0.00062497,-0.00199659,0.00112180,-0.00120156,-0.00078559,-0.0008114
 8,-0.00071923,0.00085112,0.00008970,0.00069574,0.00043106,-0.00056436,
 -0.00139399,0.00173497,0.00010947,-0.00793637,0.00577120,0.01095322,-0
 .00034191,-0.00017960,0.00031057,0.00002984,0.00002278,0.00005311,0.00
 002730,-0.00004216,0.00003358,0.00028248,-0.00081808,-0.00025878,-0.00
 027266,0.00019988,0.00009448,-0.00010652,0.00039943,0.00003263,0.00174
 887,-0.00017294,-0.00058349,0.00005394,0.00001148,0.00000362,-0.000099
 48,-0.00013516,0.00038707,-0.00350308,-0.04610007,-0.00574880,0.005871
 65,0.00594928,0.01399356,0.01055055,-0.00955768,-0.02831993,-0.0043105
 4,0.04441666,0.00129940,0.00078184,-0.00029548,0.00024006,-0.00053271,
 -0.00021118,-0.00020575,-0.00005828,-0.00001816,-0.00014301,0.00050921
 ,-0.00004660,0.00092321,0.00067794,-0.00036175,-0.00130893,-0.00176053
 ,0.00292733,-0.00021524,-0.00014175,-0.00008595,0.00002063,0.00001150,
 -0.00001050,0.00009137,0.00003275,-0.00002752,-0.00002728,0.00005980,0
 .00004522,0.00010000,0.00002704,-0.00000335,0.00002509,0.00002135,0.00
 001730,0.00023481,0.00050604,0.00036188,0.00004029,0.00001055,-0.00003
 109,-0.00023508,-0.00050561,-0.00064394,0.04087726,-0.00955739,-0.2235
 2742,-0.00321909,0.00399730,-0.00968583,0.00286005,-0.00318308,0.00090
 877,-0.04135778,0.00910402,0.23068827\\0.00000009,0.,0.00000017,-0.000
 00011,-0.00000022,0.00000026,0.00000010,-0.00000009,0.00000024,0.00000
 013,-0.00000004,-0.00000004,0.00000037,-0.00000015,-0.00000031,-0.0000
 0013,0.00000029,0.00000001,-0.00000017,-0.00000003,0.00000021,0.000000
 13,-0.00000021,0.00000033,0.00000022,-0.00000005,-0.00000004,0.0000000
 5,-0.00000031,0.00000064,-0.00000008,-0.00000027,0.00000057,-0.0000002
 5,-0.00000018,0.00000058,0.,0.00000007,-0.00000028,0.00000021,0.000000
 16,-0.00000048,0.00000015,0.00000028,-0.00000053,-0.00000004,0.0000002
 8,-0.00000070,-0.00000005,0.00000023,-0.00000049,-0.00000024,0.,-0.000
 00007,-0.00000039,0.00000026,-0.00000006\\\@


 I MET A TRAVELLER FROM AN ANTIQUE LAND
 WHO SAID... TWO VAST AND TRUNKLESS LEGS OF STONE
 STAND IN THE DESERT..... NEAR THEM,  ON THE SAND,
 HALF SUNK,  A SHATTERED VISAGE LIES,  WHOSE FROWN,
 AND WRINKLED LIP,  AND SNEER OF COLD COMMAND
 TELL THAT ITS SCULPTOR WELL THOSE PASSIONS READ
 WHICH YET SURVIVE,  STAMPED ON THESE LIFELESS THINGS
 THE HAND THAT MOCKED THEM,  AND THE HEART THAT FED-
 AND ON THE PEDESTAL THESE WORDS APPEAR 
 MY NAME IS OZYMANDIAS, KING OF KINGS--   
 LOOK ON MY WORKS YE MIGHTY AND DESPAIR. 
 NOTHING BESIDE REMAINS,  ROUND THE DECAY 
 OF THAT COLOSSAL WRECK,  BOUNDLESS AND BARE
 THE LONE AND LEVEL SANDS STRETCH FAR AWAY.
                                    SHELLEY
 Job cpu time:  0 days 12 hours  1 minutes 52.3 seconds.
 File lengths (MBytes):  RWF=    465 Int=      0 D2E=      0 Chk=     19 Scr=      1
 Normal termination of Gaussian 09 at Sun Feb 12 07:16:09 2023.
