 Entering Gaussian System, Link 0=g09
 Initial command:
 /apps/software//g09/l1.exe /scratch/matheusmaximo/37378.cluster.abaxnet/Gau-28397.inp -scrdir=/scratch/matheusmaximo/37378.cluster.abaxnet/
 Entering Link 1 = /apps/software//g09/l1.exe PID=     28398.
  
 Copyright (c) 1988,1990,1992,1993,1995,1998,2003,2009, Gaussian, Inc.
                  All Rights Reserved.
  
 This is part of the Gaussian(R) 09 program.  It is based on
 the Gaussian(R) 03 system (copyright 2003, Gaussian, Inc.),
 the Gaussian(R) 98 system (copyright 1998, Gaussian, Inc.),
 the Gaussian(R) 94 system (copyright 1995, Gaussian, Inc.),
 the Gaussian 92(TM) system (copyright 1992, Gaussian, Inc.),
 the Gaussian 90(TM) system (copyright 1990, Gaussian, Inc.),
 the Gaussian 88(TM) system (copyright 1988, Gaussian, Inc.),
 the Gaussian 86(TM) system (copyright 1986, Carnegie Mellon
 University), and the Gaussian 82(TM) system (copyright 1983,
 Carnegie Mellon University). Gaussian is a federally registered
 trademark of Gaussian, Inc.
  
 This software contains proprietary and confidential information,
 including trade secrets, belonging to Gaussian, Inc.
  
 This software is provided under written license and may be
 used, copied, transmitted, or stored only in accord with that
 written license.
  
 The following legend is applicable only to US Government
 contracts under FAR:
  
                    RESTRICTED RIGHTS LEGEND
  
 Use, reproduction and disclosure by the US Government is
 subject to restrictions as set forth in subparagraphs (a)
 and (c) of the Commercial Computer Software - Restricted
 Rights clause in FAR 52.227-19.
  
 Gaussian, Inc.
 340 Quinnipiac St., Bldg. 40, Wallingford CT 06492
  
  
 ---------------------------------------------------------------
 Warning -- This program may not be used in any manner that
 competes with the business of Gaussian, Inc. or will provide
 assistance to any competitor of Gaussian, Inc.  The licensee
 of this program is prohibited from giving any competitor of
 Gaussian, Inc. access to this program.  By using this program,
 the user acknowledges that Gaussian, Inc. is engaged in the
 business of creating and licensing software in the field of
 computational chemistry and represents and warrants to the
 licensee that it is not a competitor of Gaussian, Inc. and that
 it will not use this program in any manner prohibited above.
 ---------------------------------------------------------------
  

 Cite this work as:
 Gaussian 09, Revision A.02,
 M. J. Frisch, G. W. Trucks, H. B. Schlegel, G. E. Scuseria, 
 M. A. Robb, J. R. Cheeseman, G. Scalmani, V. Barone, B. Mennucci, 
 G. A. Petersson, H. Nakatsuji, M. Caricato, X. Li, H. P. Hratchian, 
 A. F. Izmaylov, J. Bloino, G. Zheng, J. L. Sonnenberg, M. Hada, 
 M. Ehara, K. Toyota, R. Fukuda, J. Hasegawa, M. Ishida, T. Nakajima, 
 Y. Honda, O. Kitao, H. Nakai, T. Vreven, J. A. Montgomery, Jr., 
 J. E. Peralta, F. Ogliaro, M. Bearpark, J. J. Heyd, E. Brothers, 
 K. N. Kudin, V. N. Staroverov, R. Kobayashi, J. Normand, 
 K. Raghavachari, A. Rendell, J. C. Burant, S. S. Iyengar, J. Tomasi, 
 M. Cossi, N. Rega, J. M. Millam, M. Klene, J. E. Knox, J. B. Cross, 
 V. Bakken, C. Adamo, J. Jaramillo, R. Gomperts, R. E. Stratmann, 
 O. Yazyev, A. J. Austin, R. Cammi, C. Pomelli, J. W. Ochterski, 
 R. L. Martin, K. Morokuma, V. G. Zakrzewski, G. A. Voth, 
 P. Salvador, J. J. Dannenberg, S. Dapprich, A. D. Daniels, 
 O. Farkas, J. B. Foresman, J. V. Ortiz, J. Cioslowski, 
 and D. J. Fox, Gaussian, Inc., Wallingford CT, 2009.
 
 ******************************************
 Gaussian 09:  EM64L-G09RevA.02 11-Jun-2009
                19-Oct-2022 
 ******************************************
 %chk=/home/matheusmaximo/Gaussian/NA/cam-b3lyp-def/1.chk
 ---------------------------------------------------------------------
 # opt=tight freq cam-b3lyp/gen geom=connectivity scf=qc int=ultrafine
 ---------------------------------------------------------------------
 1/7=10,14=-1,18=20,19=15,26=3,38=1,57=2/1,3;
 2/9=110,12=2,17=6,18=5,40=1/2;
 3/5=7,11=2,16=1,25=1,30=1,71=1,74=-40,75=-5/1,2,3;
 4//1;
 5/5=2,8=3,38=5/8;
 6/7=2,8=2,9=2,10=2,28=1/1;
 7//1,2,3,16;
 1/7=10,14=-1,18=20,19=15/3(2);
 2/9=110/2;
 99//99;
 2/9=110/2;
 3/5=7,6=1,11=2,16=1,25=1,30=1,71=1,74=-40,75=-5,82=7/1,2,3;
 4/5=5,16=3/1;
 5/5=2,8=3,38=5/8;
 7//1,2,3,16;
 1/7=10,14=-1,18=20,19=15/3(-5);
 2/9=110/2;
 6/7=2,8=2,9=2,10=2,19=2,28=1/1;
 99/9=1/99;
 -----------------------
 NA CAM-B3LYP def2-TZVPD
 -----------------------
 Symbolic Z-matrix:
 Charge =  0 Multiplicity = 1
 C                     0.18939   0.18182   0. 
 C                     0.18968   0.86558  -1.21174 
 C                     0.18939   0.18182  -2.42347 
 C                     0.18939  -1.19994  -2.42212 
 C                     0.19039  -1.91472  -1.21174 
 C                     0.18939  -1.19994  -0.00136 
 H                     0.18981   0.74124   0.92693 
 H                     0.18981   0.74124  -3.35041 
 H                     0.18489  -1.73987  -3.36381 
 H                     0.18489  -1.73987   0.94034 
 N                     0.19194   2.31945  -1.21174 
 O                     0.19303   2.89519  -2.29444 
 O                     0.19303   2.89519  -0.12903 
 N                    -0.27633  -3.20653  -1.16287 
 H                    -0.38663  -3.71586  -2.02486 
 H                    -0.06897  -3.76737  -0.35227 
 

 GradGradGradGradGradGradGradGradGradGradGradGradGradGradGradGradGradGrad
 Berny optimization.
 Initialization pass.
                           ----------------------------
                           !    Initial Parameters    !
                           ! (Angstroms and Degrees)  !
 --------------------------                            --------------------------
 ! Name  Definition              Value          Derivative Info.                !
 --------------------------------------------------------------------------------
 ! R1    R(1,2)                  1.3913         estimate D2E/DX2                !
 ! R2    R(1,6)                  1.3818         estimate D2E/DX2                !
 ! R3    R(1,7)                  1.0827         estimate D2E/DX2                !
 ! R4    R(2,3)                  1.3913         estimate D2E/DX2                !
 ! R5    R(2,11)                 1.4539         estimate D2E/DX2                !
 ! R6    R(3,4)                  1.3818         estimate D2E/DX2                !
 ! R7    R(3,8)                  1.0827         estimate D2E/DX2                !
 ! R8    R(4,5)                  1.4057         estimate D2E/DX2                !
 ! R9    R(4,9)                  1.0855         estimate D2E/DX2                !
 ! R10   R(5,6)                  1.4057         estimate D2E/DX2                !
 ! R11   R(5,14)                 1.3744         estimate D2E/DX2                !
 ! R12   R(6,10)                 1.0855         estimate D2E/DX2                !
 ! R13   R(11,12)                1.2263         estimate D2E/DX2                !
 ! R14   R(11,13)                1.2263         estimate D2E/DX2                !
 ! R15   R(14,15)                1.0073         estimate D2E/DX2                !
 ! R16   R(14,16)                1.0073         estimate D2E/DX2                !
 ! A1    A(2,1,6)              119.3789         estimate D2E/DX2                !
 ! A2    A(2,1,7)              119.453          estimate D2E/DX2                !
 ! A3    A(6,1,7)              121.1681         estimate D2E/DX2                !
 ! A4    A(1,2,3)              121.1297         estimate D2E/DX2                !
 ! A5    A(1,2,11)             119.4351         estimate D2E/DX2                !
 ! A6    A(3,2,11)             119.4351         estimate D2E/DX2                !
 ! A7    A(2,3,4)              119.3789         estimate D2E/DX2                !
 ! A8    A(2,3,8)              119.453          estimate D2E/DX2                !
 ! A9    A(4,3,8)              121.1681         estimate D2E/DX2                !
 ! A10   A(3,4,5)              120.6198         estimate D2E/DX2                !
 ! A11   A(3,4,9)              119.7722         estimate D2E/DX2                !
 ! A12   A(5,4,9)              119.6076         estimate D2E/DX2                !
 ! A13   A(4,5,6)              118.8727         estimate D2E/DX2                !
 ! A14   A(4,5,14)             120.5512         estimate D2E/DX2                !
 ! A15   A(6,5,14)             116.5567         estimate D2E/DX2                !
 ! A16   A(1,6,5)              120.6198         estimate D2E/DX2                !
 ! A17   A(1,6,10)             119.7722         estimate D2E/DX2                !
 ! A18   A(5,6,10)             119.6076         estimate D2E/DX2                !
 ! A19   A(2,11,12)            118.0025         estimate D2E/DX2                !
 ! A20   A(2,11,13)            118.0025         estimate D2E/DX2                !
 ! A21   A(12,11,13)           123.995          estimate D2E/DX2                !
 ! A22   A(5,14,15)            118.818          estimate D2E/DX2                !
 ! A23   A(5,14,16)            118.818          estimate D2E/DX2                !
 ! A24   A(15,14,16)           115.4465         estimate D2E/DX2                !
 ! D1    D(6,1,2,3)              0.0277         estimate D2E/DX2                !
 ! D2    D(6,1,2,11)          -179.8976         estimate D2E/DX2                !
 ! D3    D(7,1,2,3)            179.9891         estimate D2E/DX2                !
 ! D4    D(7,1,2,11)             0.0637         estimate D2E/DX2                !
 ! D5    D(2,1,6,5)              0.0337         estimate D2E/DX2                !
 ! D6    D(2,1,6,10)          -179.7399         estimate D2E/DX2                !
 ! D7    D(7,1,6,5)           -179.927          estimate D2E/DX2                !
 ! D8    D(7,1,6,10)             0.2995         estimate D2E/DX2                !
 ! D9    D(1,2,3,4)             -0.0277         estimate D2E/DX2                !
 ! D10   D(1,2,3,8)           -179.9891         estimate D2E/DX2                !
 ! D11   D(11,2,3,4)           179.8976         estimate D2E/DX2                !
 ! D12   D(11,2,3,8)            -0.0637         estimate D2E/DX2                !
 ! D13   D(1,2,11,12)          179.9532         estimate D2E/DX2                !
 ! D14   D(1,2,11,13)           -0.0265         estimate D2E/DX2                !
 ! D15   D(3,2,11,12)            0.0265         estimate D2E/DX2                !
 ! D16   D(3,2,11,13)         -179.9532         estimate D2E/DX2                !
 ! D17   D(2,3,4,5)             -0.0337         estimate D2E/DX2                !
 ! D18   D(2,3,4,9)            179.7399         estimate D2E/DX2                !
 ! D19   D(8,3,4,5)            179.927          estimate D2E/DX2                !
 ! D20   D(8,3,4,9)             -0.2995         estimate D2E/DX2                !
 ! D21   D(3,4,5,6)              0.093          estimate D2E/DX2                !
 ! D22   D(3,4,5,14)           156.7742         estimate D2E/DX2                !
 ! D23   D(9,4,5,6)           -179.6809         estimate D2E/DX2                !
 ! D24   D(9,4,5,14)           -22.9997         estimate D2E/DX2                !
 ! D25   D(4,5,6,1)             -0.093          estimate D2E/DX2                !
 ! D26   D(4,5,6,10)           179.6809         estimate D2E/DX2                !
 ! D27   D(14,5,6,1)          -157.691          estimate D2E/DX2                !
 ! D28   D(14,5,6,10)           22.0829         estimate D2E/DX2                !
 ! D29   D(4,5,14,15)           16.1258         estimate D2E/DX2                !
 ! D30   D(4,5,14,16)          165.7128         estimate D2E/DX2                !
 ! D31   D(6,5,14,15)          173.325          estimate D2E/DX2                !
 ! D32   D(6,5,14,16)          -37.088          estimate D2E/DX2                !
 --------------------------------------------------------------------------------
 Trust Radius=3.00D-01 FncErr=1.00D-07 GrdErr=1.00D-06
 Number of steps in this run=  82 maximum allowed number of steps= 100.
 GradGradGradGradGradGradGradGradGradGradGradGradGradGradGradGradGradGrad

                          Input orientation:                          
 ---------------------------------------------------------------------
 Center     Atomic      Atomic             Coordinates (Angstroms)
 Number     Number       Type             X           Y           Z
 ---------------------------------------------------------------------
      1          6           0        0.189394    0.181818    0.000000
      2          6           0        0.189682    0.865575   -1.211735
      3          6           0        0.189394    0.181818   -2.423471
      4          6           0        0.189394   -1.199937   -2.422115
      5          6           0        0.190393   -1.914717   -1.211735
      6          6           0        0.189394   -1.199937   -0.001356
      7          1           0        0.189810    0.741243    0.926934
      8          1           0        0.189810    0.741243   -3.350405
      9          1           0        0.184892   -1.739874   -3.363808
     10          1           0        0.184892   -1.739874    0.940337
     11          7           0        0.191945    2.319446   -1.211735
     12          8           0        0.193033    2.895192   -2.294443
     13          8           0        0.193033    2.895192   -0.129027
     14          7           0       -0.276330   -3.206527   -1.162873
     15          1           0       -0.386626   -3.715865   -2.024863
     16          1           0       -0.068974   -3.767365   -0.352268
 ---------------------------------------------------------------------
                    Distance matrix (angstroms):
                    1          2          3          4          5
     1  C    0.000000
     2  C    1.391340   0.000000
     3  C    2.423471   1.391340   0.000000
     4  C    2.788528   2.394026   1.381755   0.000000
     5  C    2.421520   2.780292   2.421520   1.405678   0.000000
     6  C    1.381755   2.394026   2.788528   2.420760   1.405678
     7  H    1.082665   2.142281   3.396788   3.870958   3.409990
     8  H    3.396788   2.142281   1.082665   2.151721   3.409990
     9  H    3.874032   3.379320   2.139429   1.085513   2.159170
    10  H    2.139429   3.379320   3.874032   3.405530   2.159170
    11  N    2.457186   1.453873   2.457186   3.721704   4.234163
    12  O    3.553432   2.300351   2.716442   4.097120   4.930262
    13  O    2.716442   2.300351   3.553432   4.693436   4.930262
    14  N    3.612486   4.098972   3.645119   2.414331   1.374406
    15  H    4.429876   4.688593   3.960129   2.611418   2.058704
    16  H    3.973273   4.719081   4.466843   3.307977   2.058704
                    6          7          8          9         10
     6  C    0.000000
     7  H    2.151721   0.000000
     8  H    3.870958   4.277339   0.000000
     9  H    3.405530   4.956454   2.481159   0.000000
    10  H    1.085513   2.481159   4.956454   4.304144   0.000000
    11  N    3.721704   2.657939   2.657939   4.594513   4.594513
    12  O    4.693436   3.875149   2.398867   4.756832   5.652230
    13  O    4.097120   2.398867   3.875149   5.652230   4.756832
    14  N    2.364831   4.491044   4.537342   2.684755   2.605242
    15  H    3.279676   5.376914   4.685633   2.454373   3.608820
    16  H    2.604147   4.693706   5.420641   3.639305   2.417849
                   11         12         13         14         15
    11  N    0.000000
    12  O    1.226271   0.000000
    13  O    1.226271   2.165416   0.000000
    14  N    5.545994   6.223482   6.206458   0.000000
    15  H    6.117263   6.641894   6.901904   1.007282   0.000000
    16  H    6.152726   6.944808   6.671443   1.007282   1.703271
                   16
    16  H    0.000000
 Stoichiometry    C6H6N2O2
 Framework group  C1[X(C6H6N2O2)]
 Deg. of freedom    42
 Full point group                 C1      NOp   1
 Largest Abelian subgroup         C1      NOp   1
 Largest concise Abelian subgroup C1      NOp   1
                         Standard orientation:                         
 ---------------------------------------------------------------------
 Center     Atomic      Atomic             Coordinates (Angstroms)
 Number     Number       Type             X           Y           Z
 ---------------------------------------------------------------------
      1          6           0        0.009303   -1.206537   -0.052318
      2          6           0        0.699073    0.001467   -0.024578
      3          6           0        0.022717    1.216889   -0.058010
      4          6           0       -1.357615    1.223028   -0.120398
      5          6           0       -2.078310    0.016544   -0.150828
      6          6           0       -1.371015   -1.197688   -0.114713
      7          1           0        0.563037   -2.136490   -0.025296
      8          1           0        0.586713    2.140772   -0.035342
      9          1           0       -1.891985    2.167644   -0.142492
     10          1           0       -1.915810   -2.136423   -0.132383
     11          7           0        2.151542   -0.006424    0.038809
     12          8           0        2.732734    1.073138    0.061176
     13          8           0        2.720748   -1.092238    0.066262
     14          7           0       -3.390123   -0.024099    0.257202
     15          1           0       -3.899141    0.840924    0.342363
     16          1           0       -3.945508   -0.832186    0.026638
 ---------------------------------------------------------------------
 Rotational constants (GHZ):      3.8934928      0.8338086      0.6903421
 General basis read from cards:  (5D, 7F)
 There are   430 symmetry adapted basis functions of A   symmetry.
 Integral buffers will be    131072 words long.
 Raffenetti 2 integral format.
 Two-electron integral symmetry is turned on.
   430 basis functions,   652 primitive gaussians,   490 cartesian basis functions
    36 alpha electrons       36 beta electrons
       nuclear repulsion energy       497.1257036331 Hartrees.
 NAtoms=   16 NActive=   16 NUniq=   16 SFac= 7.50D-01 NAtFMM=   80 NAOKFM=F Big=F
 One-electron integrals computed using PRISM.
 NBasis=   430 RedAO= T  NBF=   430
 NBsUse=   429 1.00D-06 NBFU=   429
 Harris functional with IExCor=20419 diagonalized for initial guess.
 ExpMin= 4.85D-02 ExpMax= 2.70D+04 ExpMxC= 9.22D+02 IAcc=3 IRadAn=         5 AccDes= 0.00D+00
 HarFok:  IExCor=20419 AccDes= 0.00D+00 IRadAn=         5 IDoV= 1
 ScaDFX=  1.000000  1.000000  1.000000  1.000000
 FoFCou: FMM=F IPFlag=           0 FMFlag=      100000 FMFlg1=           0
         NFxFlg=           0 DoJE=T BraDBF=F KetDBF=T FulRan=T
         Omega=  0.000000  0.000000  1.000000  0.000000  0.000000 ICntrl=     500 IOpCl=  0
         NMat0=    1 NMatS0=    1 NMatT0=    0 NMatD0=    1 NMtDS0=    0 NMtDT0=    0
         I1Cent=           4 NGrid=           0.
 Petite list used in FoFCou.
 Initial guess orbital symmetries:
       Occupied  (A) (A) (A) (A) (A) (A) (A) (A) (A) (A) (A) (A)
                 (A) (A) (A) (A) (A) (A) (A) (A) (A) (A) (A) (A)
                 (A) (A) (A) (A) (A) (A) (A) (A) (A) (A) (A) (A)
       Virtual   (A) (A) (A) (A) (A) (A) (A) (A) (A) (A) (A) (A)
                 (A) (A) (A) (A) (A) (A) (A) (A) (A) (A) (A) (A)
                 (A) (A) (A) (A) (A) (A) (A) (A) (A) (A) (A) (A)
                 (A) (A) (A) (A) (A) (A) (A) (A) (A) (A) (A) (A)
                 (A) (A) (A) (A) (A) (A) (A) (A) (A) (A) (A) (A)
                 (A) (A) (A) (A) (A) (A) (A) (A) (A) (A) (A) (A)
                 (A) (A) (A) (A) (A) (A) (A) (A) (A) (A) (A) (A)
                 (A) (A) (A) (A) (A) (A) (A) (A) (A) (A) (A) (A)
                 (A) (A) (A) (A) (A) (A) (A) (A) (A) (A) (A) (A)
                 (A) (A) (A) (A) (A) (A) (A) (A) (A) (A) (A) (A)
                 (A) (A) (A) (A) (A) (A) (A) (A) (A) (A) (A) (A)
                 (A) (A) (A) (A) (A) (A) (A) (A) (A) (A) (A) (A)
                 (A) (A) (A) (A) (A) (A) (A) (A) (A) (A) (A) (A)
                 (A) (A) (A) (A) (A) (A) (A) (A) (A) (A) (A) (A)
                 (A) (A) (A) (A) (A) (A) (A) (A) (A) (A) (A) (A)
                 (A) (A) (A) (A) (A) (A) (A) (A) (A) (A) (A) (A)
                 (A) (A) (A) (A) (A) (A) (A) (A) (A) (A) (A) (A)
                 (A) (A) (A) (A) (A) (A) (A) (A) (A) (A) (A) (A)
                 (A) (A) (A) (A) (A) (A) (A) (A) (A) (A) (A) (A)
                 (A) (A) (A) (A) (A) (A) (A) (A) (A) (A) (A) (A)
                 (A) (A) (A) (A) (A) (A) (A) (A) (A) (A) (A) (A)
                 (A) (A) (A) (A) (A) (A) (A) (A) (A) (A) (A) (A)
                 (A) (A) (A) (A) (A) (A) (A) (A) (A) (A) (A) (A)
                 (A) (A) (A) (A) (A) (A) (A) (A) (A) (A) (A) (A)
                 (A) (A) (A) (A) (A) (A) (A) (A) (A) (A) (A) (A)
                 (A) (A) (A) (A) (A) (A) (A) (A) (A) (A) (A) (A)
                 (A) (A) (A) (A) (A) (A) (A) (A) (A) (A) (A) (A)
                 (A) (A) (A) (A) (A) (A) (A) (A) (A) (A) (A) (A)
                 (A) (A) (A) (A) (A) (A) (A) (A) (A) (A) (A) (A)
                 (A) (A) (A) (A) (A) (A) (A) (A) (A) (A) (A) (A)
                 (A) (A) (A) (A) (A) (A) (A) (A) (A) (A) (A) (A)
                 (A) (A) (A) (A) (A) (A) (A) (A) (A) (A) (A) (A)
                 (A) (A) (A) (A) (A) (A) (A) (A) (A)
 The electronic state of the initial guess is 1-A.
 FoFJK:  IHMeth= 1 ICntrl=     0 DoSepK=T KAlg= 1 I1Cent= 0 FoldK=F
 Gradient too large for Newton-Raphson -- use scaled steepest descent instead.
 FoFJK:  IHMeth= 1 ICntrl=     0 DoSepK=T KAlg= 1 I1Cent= 0 FoldK=F
 FoFJK:  IHMeth= 1 ICntrl=     0 DoSepK=T KAlg= 1 I1Cent= 0 FoldK=F
 FoFJK:  IHMeth= 1 ICntrl=     0 DoSepK=T KAlg= 1 I1Cent= 0 FoldK=F
 FoFJK:  IHMeth= 1 ICntrl=     0 DoSepK=T KAlg= 1 I1Cent= 0 FoldK=F
 Gradient too large for Newton-Raphson -- use scaled steepest descent instead.
 FoFJK:  IHMeth= 1 ICntrl=     0 DoSepK=T KAlg= 1 I1Cent= 0 FoldK=F
 FoFJK:  IHMeth= 1 ICntrl=     0 DoSepK=T KAlg= 1 I1Cent= 0 FoldK=F
 FoFJK:  IHMeth= 1 ICntrl=     0 DoSepK=T KAlg= 1 I1Cent= 0 FoldK=F
 FoFJK:  IHMeth= 1 ICntrl=     0 DoSepK=T KAlg= 1 I1Cent= 0 FoldK=F
 FoFJK:  IHMeth= 1 ICntrl=     0 DoSepK=T KAlg= 1 I1Cent= 0 FoldK=F
 Gradient too large for Newton-Raphson -- use scaled steepest descent instead.
 FoFJK:  IHMeth= 1 ICntrl=     0 DoSepK=T KAlg= 1 I1Cent= 0 FoldK=F
 FoFJK:  IHMeth= 1 ICntrl=     0 DoSepK=T KAlg= 1 I1Cent= 0 FoldK=F
 FoFJK:  IHMeth= 1 ICntrl=     0 DoSepK=T KAlg= 1 I1Cent= 0 FoldK=F
 Gradient too large for Newton-Raphson -- use scaled steepest descent instead.
 FoFJK:  IHMeth= 1 ICntrl=     0 DoSepK=T KAlg= 1 I1Cent= 0 FoldK=F
 FoFJK:  IHMeth= 1 ICntrl=     0 DoSepK=T KAlg= 1 I1Cent= 0 FoldK=F
 FoFJK:  IHMeth= 1 ICntrl=     0 DoSepK=T KAlg= 1 I1Cent= 0 FoldK=F
 FoFJK:  IHMeth= 1 ICntrl=     0 DoSepK=T KAlg= 1 I1Cent= 0 FoldK=F
 FoFJK:  IHMeth= 1 ICntrl=     0 DoSepK=T KAlg= 1 I1Cent= 0 FoldK=F
 Gradient too large for Newton-Raphson -- use scaled steepest descent instead.
 FoFJK:  IHMeth= 1 ICntrl=     0 DoSepK=T KAlg= 1 I1Cent= 0 FoldK=F
 FoFJK:  IHMeth= 1 ICntrl=     0 DoSepK=T KAlg= 1 I1Cent= 0 FoldK=F
 FoFJK:  IHMeth= 1 ICntrl=     0 DoSepK=T KAlg= 1 I1Cent= 0 FoldK=F
 LinEq1:  Iter=  0 NonCon=     1 RMS=7.80D-05 Max=7.02D-03
 AX will form     1 AO Fock derivatives at one time.
 FoFJK:  IHMeth= 1 ICntrl=     0 DoSepK=T KAlg= 1 I1Cent= 0 FoldK=F
 LinEq1:  Iter=  1 NonCon=     1 RMS=5.67D-05 Max=2.44D-03
 FoFJK:  IHMeth= 1 ICntrl=     0 DoSepK=T KAlg= 1 I1Cent= 0 FoldK=F
 LinEq1:  Iter=  2 NonCon=     1 RMS=1.04D-05 Max=3.73D-04
 FoFJK:  IHMeth= 1 ICntrl=     0 DoSepK=T KAlg= 1 I1Cent= 0 FoldK=F
 LinEq1:  Iter=  3 NonCon=     1 RMS=5.04D-06 Max=3.99D-04
 FoFJK:  IHMeth= 1 ICntrl=     0 DoSepK=T KAlg= 1 I1Cent= 0 FoldK=F
 LinEq1:  Iter=  4 NonCon=     1 RMS=2.54D-06 Max=1.01D-04
 FoFJK:  IHMeth= 1 ICntrl=     0 DoSepK=T KAlg= 1 I1Cent= 0 FoldK=F
 LinEq1:  Iter=  5 NonCon=     1 RMS=8.48D-07 Max=2.41D-05
 FoFJK:  IHMeth= 1 ICntrl=     0 DoSepK=T KAlg= 1 I1Cent= 0 FoldK=F
 LinEq1:  Iter=  6 NonCon=     1 RMS=3.32D-07 Max=1.49D-05
 FoFJK:  IHMeth= 1 ICntrl=     0 DoSepK=T KAlg= 1 I1Cent= 0 FoldK=F
 LinEq1:  Iter=  7 NonCon=     1 RMS=1.53D-07 Max=3.98D-06
 FoFJK:  IHMeth= 1 ICntrl=     0 DoSepK=T KAlg= 1 I1Cent= 0 FoldK=F
 LinEq1:  Iter=  8 NonCon=     1 RMS=5.90D-08 Max=2.07D-06
 FoFJK:  IHMeth= 1 ICntrl=     0 DoSepK=T KAlg= 1 I1Cent= 0 FoldK=F
 LinEq1:  Iter=  9 NonCon=     1 RMS=2.70D-08 Max=7.38D-07
 FoFJK:  IHMeth= 1 ICntrl=     0 DoSepK=T KAlg= 1 I1Cent= 0 FoldK=F
 LinEq1:  Iter= 10 NonCon=     1 RMS=1.40D-08 Max=6.82D-07
 FoFJK:  IHMeth= 1 ICntrl=     0 DoSepK=T KAlg= 1 I1Cent= 0 FoldK=F
 LinEq1:  Iter= 11 NonCon=     1 RMS=6.73D-09 Max=3.82D-07
 FoFJK:  IHMeth= 1 ICntrl=     0 DoSepK=T KAlg= 1 I1Cent= 0 FoldK=F
 LinEq1:  Iter= 12 NonCon=     0 RMS=3.55D-09 Max=1.55D-07
 Linear equations converged to 1.682D-08 1.682D-07 after    12 iterations.
 FoFJK:  IHMeth= 1 ICntrl=     0 DoSepK=T KAlg= 1 I1Cent= 0 FoldK=F
 FoFJK:  IHMeth= 1 ICntrl=     0 DoSepK=T KAlg= 1 I1Cent= 0 FoldK=F
 FoFJK:  IHMeth= 1 ICntrl=     0 DoSepK=T KAlg= 1 I1Cent= 0 FoldK=F
 LinEq1:  Iter=  0 NonCon=     1 RMS=7.65D-07 Max=5.20D-05
 FoFJK:  IHMeth= 1 ICntrl=     0 DoSepK=T KAlg= 1 I1Cent= 0 FoldK=F
 LinEq1:  Iter=  1 NonCon=     1 RMS=2.39D-07 Max=8.04D-06
 FoFJK:  IHMeth= 1 ICntrl=     0 DoSepK=T KAlg= 1 I1Cent= 0 FoldK=F
 LinEq1:  Iter=  2 NonCon=     1 RMS=1.25D-07 Max=4.76D-06
 FoFJK:  IHMeth= 1 ICntrl=     0 DoSepK=T KAlg= 1 I1Cent= 0 FoldK=F
 LinEq1:  Iter=  3 NonCon=     1 RMS=6.45D-08 Max=2.71D-06
 FoFJK:  IHMeth= 1 ICntrl=     0 DoSepK=T KAlg= 1 I1Cent= 0 FoldK=F
 LinEq1:  Iter=  4 NonCon=     1 RMS=3.12D-08 Max=1.48D-06
 FoFJK:  IHMeth= 1 ICntrl=     0 DoSepK=T KAlg= 1 I1Cent= 0 FoldK=F
 LinEq1:  Iter=  5 NonCon=     1 RMS=1.82D-08 Max=9.21D-07
 FoFJK:  IHMeth= 1 ICntrl=     0 DoSepK=T KAlg= 1 I1Cent= 0 FoldK=F
 LinEq1:  Iter=  6 NonCon=     1 RMS=1.46D-08 Max=8.37D-07
 FoFJK:  IHMeth= 1 ICntrl=     0 DoSepK=T KAlg= 1 I1Cent= 0 FoldK=F
 LinEq1:  Iter=  7 NonCon=     1 RMS=9.76D-09 Max=3.65D-07
 FoFJK:  IHMeth= 1 ICntrl=     0 DoSepK=T KAlg= 1 I1Cent= 0 FoldK=F
 LinEq1:  Iter=  8 NonCon=     1 RMS=5.54D-09 Max=2.17D-07
 FoFJK:  IHMeth= 1 ICntrl=     0 DoSepK=T KAlg= 1 I1Cent= 0 FoldK=F
 LinEq1:  Iter=  9 NonCon=     1 RMS=1.80D-09 Max=4.28D-08
 FoFJK:  IHMeth= 1 ICntrl=     0 DoSepK=T KAlg= 1 I1Cent= 0 FoldK=F
 LinEq1:  Iter= 10 NonCon=     1 RMS=9.38D-10 Max=2.83D-08
 FoFJK:  IHMeth= 1 ICntrl=     0 DoSepK=T KAlg= 1 I1Cent= 0 FoldK=F
 LinEq1:  Iter= 11 NonCon=     0 RMS=2.62D-10 Max=8.46D-09
 Linear equations converged to 9.690D-10 9.690D-09 after    11 iterations.
 FoFJK:  IHMeth= 1 ICntrl=     0 DoSepK=T KAlg= 1 I1Cent= 0 FoldK=F
 SCF Done:  E(RCAM-B3LYP) =  -492.078590047     a.u. after    8 cycles
            Convg  =    0.4063D-08                    48 Fock formations.
              S**2 =  0.0000                  -V/T =  2.0043

 **********************************************************************

            Population analysis using the SCF density.

 **********************************************************************

 Orbital symmetries:
       Occupied  (A) (A) (A) (A) (A) (A) (A) (A) (A) (A) (A) (A)
                 (A) (A) (A) (A) (A) (A) (A) (A) (A) (A) (A) (A)
                 (A) (A) (A) (A) (A) (A) (A) (A) (A) (A) (A) (A)
       Virtual   (A) (A) (A) (A) (A) (A) (A) (A) (A) (A) (A) (A)
                 (A) (A) (A) (A) (A) (A) (A) (A) (A) (A) (A) (A)
                 (A) (A) (A) (A) (A) (A) (A) (A) (A) (A) (A) (A)
                 (A) (A) (A) (A) (A) (A) (A) (A) (A) (A) (A) (A)
                 (A) (A) (A) (A) (A) (A) (A) (A) (A) (A) (A) (A)
                 (A) (A) (A) (A) (A) (A) (A) (A) (A) (A) (A) (A)
                 (A) (A) (A) (A) (A) (A) (A) (A) (A) (A) (A) (A)
                 (A) (A) (A) (A) (A) (A) (A) (A) (A) (A) (A) (A)
                 (A) (A) (A) (A) (A) (A) (A) (A) (A) (A) (A) (A)
                 (A) (A) (A) (A) (A) (A) (A) (A) (A) (A) (A) (A)
                 (A) (A) (A) (A) (A) (A) (A) (A) (A) (A) (A) (A)
                 (A) (A) (A) (A) (A) (A) (A) (A) (A) (A) (A) (A)
                 (A) (A) (A) (A) (A) (A) (A) (A) (A) (A) (A) (A)
                 (A) (A) (A) (A) (A) (A) (A) (A) (A) (A) (A) (A)
                 (A) (A) (A) (A) (A) (A) (A) (A) (A) (A) (A) (A)
                 (A) (A) (A) (A) (A) (A) (A) (A) (A) (A) (A) (A)
                 (A) (A) (A) (A) (A) (A) (A) (A) (A) (A) (A) (A)
                 (A) (A) (A) (A) (A) (A) (A) (A) (A) (A) (A) (A)
                 (A) (A) (A) (A) (A) (A) (A) (A) (A) (A) (A) (A)
                 (A) (A) (A) (A) (A) (A) (A) (A) (A) (A) (A) (A)
                 (A) (A) (A) (A) (A) (A) (A) (A) (A) (A) (A) (A)
                 (A) (A) (A) (A) (A) (A) (A) (A) (A) (A) (A) (A)
                 (A) (A) (A) (A) (A) (A) (A) (A) (A) (A) (A) (A)
                 (A) (A) (A) (A) (A) (A) (A) (A) (A) (A) (A) (A)
                 (A) (A) (A) (A) (A) (A) (A) (A) (A) (A) (A) (A)
                 (A) (A) (A) (A) (A) (A) (A) (A) (A) (A) (A) (A)
                 (A) (A) (A) (A) (A) (A) (A) (A) (A) (A) (A) (A)
                 (A) (A) (A) (A) (A) (A) (A) (A) (A) (A) (A) (A)
                 (A) (A) (A) (A) (A) (A) (A) (A) (A) (A) (A) (A)
                 (A) (A) (A) (A) (A) (A) (A) (A) (A) (A) (A) (A)
                 (A) (A) (A) (A) (A) (A) (A) (A) (A) (A) (A) (A)
                 (A) (A) (A) (A) (A) (A) (A) (A) (A) (A) (A) (A)
                 (A) (A) (A) (A) (A) (A) (A) (A) (A)
 The electronic state is 1-A.
 Alpha  occ. eigenvalues --  -19.22532 -19.22521 -14.62651 -14.42564 -10.32499
 Alpha  occ. eigenvalues --  -10.30254 -10.27997 -10.27885 -10.27010 -10.26909
 Alpha  occ. eigenvalues --   -1.30827  -1.12989  -1.03894  -0.96606  -0.87711
 Alpha  occ. eigenvalues --   -0.85902  -0.77268  -0.72366  -0.67745  -0.63877
 Alpha  occ. eigenvalues --   -0.62063  -0.60947  -0.60826  -0.57934  -0.53701
 Alpha  occ. eigenvalues --   -0.53062  -0.51757  -0.50051  -0.47640  -0.43598
 Alpha  occ. eigenvalues --   -0.41099  -0.37814  -0.37394  -0.35994  -0.33963
 Alpha  occ. eigenvalues --   -0.29000
 Alpha virt. eigenvalues --   -0.04424   0.00821   0.01573   0.03978   0.04063
 Alpha virt. eigenvalues --    0.04424   0.06635   0.06947   0.07340   0.09332
 Alpha virt. eigenvalues --    0.10188   0.10439   0.10814   0.12888   0.12918
 Alpha virt. eigenvalues --    0.14186   0.14650   0.15407   0.16202   0.16766
 Alpha virt. eigenvalues --    0.17901   0.18233   0.19137   0.19733   0.20452
 Alpha virt. eigenvalues --    0.21029   0.21317   0.21510   0.22768   0.23300
 Alpha virt. eigenvalues --    0.23645   0.23976   0.25039   0.25418   0.26298
 Alpha virt. eigenvalues --    0.27621   0.27760   0.28053   0.28369   0.29393
 Alpha virt. eigenvalues --    0.29697   0.30221   0.30437   0.30741   0.31144
 Alpha virt. eigenvalues --    0.31519   0.32835   0.33381   0.33846   0.35326
 Alpha virt. eigenvalues --    0.35736   0.36501   0.36623   0.37098   0.37815
 Alpha virt. eigenvalues --    0.38356   0.38704   0.39064   0.39184   0.40785
 Alpha virt. eigenvalues --    0.41586   0.41892   0.42665   0.42977   0.43323
 Alpha virt. eigenvalues --    0.43977   0.44735   0.45549   0.46631   0.47168
 Alpha virt. eigenvalues --    0.47338   0.48091   0.48263   0.49047   0.49203
 Alpha virt. eigenvalues --    0.49500   0.50150   0.50750   0.52851   0.52904
 Alpha virt. eigenvalues --    0.53357   0.53647   0.55260   0.55603   0.57183
 Alpha virt. eigenvalues --    0.58449   0.58928   0.59230   0.60207   0.60856
 Alpha virt. eigenvalues --    0.60938   0.61496   0.61752   0.62524   0.63351
 Alpha virt. eigenvalues --    0.64430   0.64933   0.65643   0.66102   0.67839
 Alpha virt. eigenvalues --    0.68190   0.68298   0.68899   0.69678   0.69818
 Alpha virt. eigenvalues --    0.70526   0.71673   0.71996   0.72655   0.73277
 Alpha virt. eigenvalues --    0.73378   0.74017   0.74829   0.75097   0.76781
 Alpha virt. eigenvalues --    0.77302   0.77717   0.78636   0.79338   0.79676
 Alpha virt. eigenvalues --    0.79925   0.80582   0.82215   0.82587   0.83496
 Alpha virt. eigenvalues --    0.84633   0.84739   0.85290   0.86713   0.87403
 Alpha virt. eigenvalues --    0.89812   0.91054   0.92865   0.95414   0.95619
 Alpha virt. eigenvalues --    0.96919   0.97308   0.97878   0.98986   0.99424
 Alpha virt. eigenvalues --    1.00422   1.02026   1.03080   1.04597   1.04849
 Alpha virt. eigenvalues --    1.05884   1.08047   1.09606   1.10335   1.10865
 Alpha virt. eigenvalues --    1.12780   1.14548   1.18496   1.19469   1.21746
 Alpha virt. eigenvalues --    1.23196   1.24253   1.26612   1.31170   1.31438
 Alpha virt. eigenvalues --    1.33484   1.34756   1.35728   1.36414   1.38119
 Alpha virt. eigenvalues --    1.40523   1.41795   1.43160   1.43644   1.47119
 Alpha virt. eigenvalues --    1.49466   1.49754   1.52196   1.52695   1.54579
 Alpha virt. eigenvalues --    1.56868   1.59087   1.60281   1.61348   1.62074
 Alpha virt. eigenvalues --    1.68444   1.71181   1.71973   1.73747   1.75461
 Alpha virt. eigenvalues --    1.76992   1.77755   1.78401   1.80116   1.82185
 Alpha virt. eigenvalues --    1.83279   1.84418   1.87611   1.88870   1.90109
 Alpha virt. eigenvalues --    1.91078   1.92511   1.93955   1.95118   1.96138
 Alpha virt. eigenvalues --    1.98016   1.99563   2.00258   2.01497   2.02754
 Alpha virt. eigenvalues --    2.04751   2.07090   2.08737   2.09835   2.14302
 Alpha virt. eigenvalues --    2.18827   2.19641   2.22615   2.24788   2.27090
 Alpha virt. eigenvalues --    2.27511   2.29995   2.32419   2.33423   2.34574
 Alpha virt. eigenvalues --    2.36066   2.40265   2.42017   2.42614   2.43955
 Alpha virt. eigenvalues --    2.46430   2.49939   2.53157   2.53585   2.55377
 Alpha virt. eigenvalues --    2.56750   2.62879   2.63624   2.66554   2.69374
 Alpha virt. eigenvalues --    2.70704   2.71928   2.73265   2.75109   2.78799
 Alpha virt. eigenvalues --    2.80202   2.81964   2.84632   2.86217   2.86807
 Alpha virt. eigenvalues --    2.87378   2.87532   2.90410   2.92786   2.93592
 Alpha virt. eigenvalues --    2.94506   2.97346   2.98904   3.00212   3.01857
 Alpha virt. eigenvalues --    3.02722   3.09566   3.09917   3.10722   3.11139
 Alpha virt. eigenvalues --    3.13512   3.14096   3.16564   3.19883   3.21255
 Alpha virt. eigenvalues --    3.23110   3.25077   3.26034   3.27570   3.30776
 Alpha virt. eigenvalues --    3.31090   3.32583   3.34711   3.35671   3.37036
 Alpha virt. eigenvalues --    3.39763   3.40679   3.42314   3.43485   3.44732
 Alpha virt. eigenvalues --    3.45403   3.46997   3.48347   3.49360   3.50171
 Alpha virt. eigenvalues --    3.51619   3.54393   3.55129   3.56322   3.60326
 Alpha virt. eigenvalues --    3.61290   3.62801   3.63422   3.67093   3.68368
 Alpha virt. eigenvalues --    3.70892   3.71908   3.72842   3.78783   3.84378
 Alpha virt. eigenvalues --    3.89276   3.89680   3.95762   3.97224   4.00998
 Alpha virt. eigenvalues --    4.03871   4.05974   4.13814   4.15680   4.17685
 Alpha virt. eigenvalues --    4.18589   4.19882   4.25058   4.25781   4.26846
 Alpha virt. eigenvalues --    4.28989   4.30180   4.30244   4.32222   4.33656
 Alpha virt. eigenvalues --    4.35392   4.41185   4.45903   4.52064   4.56471
 Alpha virt. eigenvalues --    4.62346   4.66664   4.68557   4.75520   4.77055
 Alpha virt. eigenvalues --    4.78525   4.81013   4.82312   4.83890   4.87329
 Alpha virt. eigenvalues --    4.88763   4.95028   4.98022   4.99864   5.01672
 Alpha virt. eigenvalues --    5.04562   5.05534   5.06423   5.14679   5.20758
 Alpha virt. eigenvalues --    5.21583   5.24537   5.26466   5.28077   5.29071
 Alpha virt. eigenvalues --    5.30511   5.39496   5.40708   5.43885   5.44237
 Alpha virt. eigenvalues --    5.47363   5.51960   5.56554   5.57934   5.66191
 Alpha virt. eigenvalues --    5.68447   5.70925   5.72038   5.78896   5.96700
 Alpha virt. eigenvalues --    5.98506   6.08220   6.10467   6.43256   6.44513
 Alpha virt. eigenvalues --    6.52798   6.58990   6.61020   6.63479   6.94213
 Alpha virt. eigenvalues --    6.95461   6.98454   7.11604   7.30578   7.44972
 Alpha virt. eigenvalues --    7.53407   7.81533   7.83895  22.65473  22.83954
 Alpha virt. eigenvalues --   22.94041  22.98546  23.12218  23.43030  32.41632
 Alpha virt. eigenvalues --   32.81721  44.46780  44.63231
          Condensed to atoms (all electrons):
              1          2          3          4          5          6
     1  C    6.472635   0.326157  -0.465970  -0.065255  -0.311206   0.311701
     2  C    0.326157   6.367717   0.729547  -0.430478  -0.592371  -0.264361
     3  C   -0.465970   0.729547   6.839922  -0.005320  -0.764685  -0.059588
     4  C   -0.065255  -0.430478  -0.005320   6.934437   0.062556  -0.406697
     5  C   -0.311206  -0.592371  -0.764685   0.062556   7.608506  -0.233962
     6  C    0.311701  -0.264361  -0.059588  -0.406697  -0.233962   6.721427
     7  H    0.267299  -0.254614   0.003309   0.012742   0.094954  -0.065661
     8  H    0.041928  -0.162211   0.193620  -0.014870   0.050750  -0.004497
     9  H    0.007399   0.047322   0.027840   0.386290  -0.331157   0.036530
    10  H   -0.006084   0.094104   0.039808   0.022290  -0.498729   0.442215
    11  N   -0.161281   0.390909  -0.182402   0.010442   0.038767  -0.010504
    12  O    0.022429  -0.056618  -0.018035   0.010475  -0.009200  -0.002829
    13  O   -0.023917  -0.040827   0.022894  -0.005956  -0.011100   0.015621
    14  N    0.010229   0.035911   0.040659  -0.016275  -0.056542   0.011694
    15  H   -0.005642  -0.002199  -0.003697   0.042513  -0.016642  -0.058162
    16  H    0.003147  -0.003477  -0.009277  -0.029240   0.029567   0.007106
              7          8          9         10         11         12
     1  C    0.267299   0.041928   0.007399  -0.006084  -0.161281   0.022429
     2  C   -0.254614  -0.162211   0.047322   0.094104   0.390909  -0.056618
     3  C    0.003309   0.193620   0.027840   0.039808  -0.182402  -0.018035
     4  C    0.012742  -0.014870   0.386290   0.022290   0.010442   0.010475
     5  C    0.094954   0.050750  -0.331157  -0.498729   0.038767  -0.009200
     6  C   -0.065661  -0.004497   0.036530   0.442215  -0.010504  -0.002829
     7  H    0.546573   0.009331  -0.002046  -0.045125   0.036626  -0.004173
     8  H    0.009331   0.467385  -0.007957  -0.002512   0.020472  -0.003556
     9  H   -0.002046  -0.007957   0.557977   0.007604  -0.001942   0.000536
    10  H   -0.045125  -0.002512   0.007604   0.668373  -0.004971   0.000311
    11  N    0.036626   0.020472  -0.001942  -0.004971   5.760542   0.105323
    12  O   -0.004173  -0.003556   0.000536   0.000311   0.105323   8.644218
    13  O   -0.010332  -0.004563   0.000247   0.001515   0.099100  -0.104169
    14  N   -0.006178  -0.002251   0.031049   0.079935  -0.001367   0.000148
    15  H    0.000171   0.000408  -0.003291  -0.012505   0.000081   0.000015
    16  H    0.000526   0.000075  -0.009705  -0.007510   0.000069  -0.000001
             13         14         15         16
     1  C   -0.023917   0.010229  -0.005642   0.003147
     2  C   -0.040827   0.035911  -0.002199  -0.003477
     3  C    0.022894   0.040659  -0.003697  -0.009277
     4  C   -0.005956  -0.016275   0.042513  -0.029240
     5  C   -0.011100  -0.056542  -0.016642   0.029567
     6  C    0.015621   0.011694  -0.058162   0.007106
     7  H   -0.010332  -0.006178   0.000171   0.000526
     8  H   -0.004563  -0.002251   0.000408   0.000075
     9  H    0.000247   0.031049  -0.003291  -0.009705
    10  H    0.001515   0.079935  -0.012505  -0.007510
    11  N    0.099100  -0.001367   0.000081   0.000069
    12  O   -0.104169   0.000148   0.000015  -0.000001
    13  O    8.644498   0.000254  -0.000013   0.000008
    14  N    0.000254   6.555942   0.379847   0.363758
    15  H   -0.000013   0.379847   0.537187  -0.041265
    16  H    0.000008   0.363758  -0.041265   0.490330
 Mulliken atomic charges:
              1
     1  C   -0.423569
     2  C   -0.184509
     3  C   -0.388627
     4  C   -0.507653
     5  C    0.940492
     6  C   -0.440035
     7  H    0.416597
     8  H    0.418446
     9  H    0.253304
    10  H    0.221281
    11  N    0.900135
    12  O   -0.584873
    13  O   -0.583261
    14  N   -0.426813
    15  H    0.183194
    16  H    0.205889
 Sum of Mulliken atomic charges =   0.00000
 Mulliken charges with hydrogens summed into heavy atoms:
              1
     1  C   -0.006972
     2  C   -0.184509
     3  C    0.029819
     4  C   -0.254349
     5  C    0.940492
     6  C   -0.218754
    11  N    0.900135
    12  O   -0.584873
    13  O   -0.583261
    14  N   -0.037729
 Sum of Mulliken charges with hydrogens summed into heavy atoms =   0.00000
 Electronic spatial extent (au):  <R**2>=           1543.3357
 Charge=              0.0000 electrons
 Dipole moment (field-independent basis, Debye):
    X=             -7.2080    Y=              0.0859    Z=             -0.3247  Tot=              7.2158
 Quadrupole moment (field-independent basis, Debye-Ang):
   XX=            -57.5720   YY=            -53.3421   ZZ=            -60.4540
   XY=             -0.0855   XZ=              0.2375   YZ=              0.5750
 Traceless Quadrupole moment (field-independent basis, Debye-Ang):
   XX=             -0.4493   YY=              3.7806   ZZ=             -3.3313
   XY=             -0.0855   XZ=              0.2375   YZ=              0.5750
 Octapole moment (field-independent basis, Debye-Ang**2):
  XXX=            -97.3964  YYY=              0.1243  ZZZ=              1.6077  XYY=            -14.9453
  XXY=              0.2331  XXZ=             -2.2464  XZZ=             12.9009  YZZ=              0.2115
  YYZ=              0.2562  XYZ=             -2.2966
 Hexadecapole moment (field-independent basis, Debye-Ang**3):
 XXXX=          -1376.6571 YYYY=           -367.1700 ZZZZ=            -70.1112 XXXY=              0.8464
 XXXZ=             -6.7021 YYYX=              0.3883 YYYZ=              0.4930 ZZZX=              1.3073
 ZZZY=              0.4795 XXYY=           -300.6119 XXZZ=           -273.8040 YYZZ=            -84.5826
 XXYZ=              9.2972 YYXZ=             -1.5282 ZZXY=             -1.0725
 N-N= 4.971257036331D+02 E-N=-2.143972029555D+03  KE= 4.899881747178D+02
 Calling FoFJK, ICntrl=      2127 FMM=F ISym2X=0 I1Cent= 0 IOpClX= 0 NMat=1 NMatS=1 NMatT=0.
 FoFJK:  IHMeth= 1 ICntrl=  2127 DoSepK=T KAlg= 1 I1Cent= 0 FoldK=F
 ***** Axes restored to original set *****
 -------------------------------------------------------------------
 Center     Atomic                   Forces (Hartrees/Bohr)
 Number     Number              X              Y              Z
 -------------------------------------------------------------------
      1        6           0.005808118   -0.004967791   -0.001720947
      2        6          -0.000280961   -0.003731916   -0.001853963
      3        6           0.004263579   -0.001494904    0.004415696
      4        6           0.007880570    0.000201900    0.002205251
      5        6          -0.041230860    0.011354223    0.004678802
      6        6           0.012576916    0.010432846   -0.001123519
      7        1          -0.000634689   -0.001011375   -0.002131647
      8        1          -0.000284828   -0.001111144    0.002134391
      9        1          -0.002165388    0.000906687    0.001920687
     10        1          -0.002898610    0.001006178   -0.002105528
     11        7          -0.000613114    0.011353042   -0.000111845
     12        8          -0.000019898   -0.006702186    0.013035763
     13        8          -0.000014061   -0.006812814   -0.013080110
     14        7           0.014400818   -0.009912524   -0.006320805
     15        1           0.003735889   -0.000165534    0.001515949
     16        1          -0.000523482    0.000655312   -0.001458175
 -------------------------------------------------------------------
 Cartesian Forces:  Max     0.041230860 RMS     0.008248794

 GradGradGradGradGradGradGradGradGradGradGradGradGradGradGradGradGradGrad
 Berny optimization.
 Internal  Forces:  Max     0.014747395 RMS     0.004445424
 Search for a local minimum.
 Step number   1 out of a maximum of   82
 All quantities printed in internal units (Hartrees-Bohrs-Radians)
 Mixed Optimization -- RFO/linear search
 Second derivative matrix not updated -- first step.
     Eigenvalues ---    0.00979   0.00979   0.01836   0.02030   0.02053
     Eigenvalues ---    0.02151   0.02179   0.02227   0.02234   0.02273
     Eigenvalues ---    0.02277   0.02404   0.02988   0.16000   0.16000
     Eigenvalues ---    0.16000   0.16000   0.16000   0.16000   0.22000
     Eigenvalues ---    0.22701   0.23152   0.23696   0.25000   0.25000
     Eigenvalues ---    0.25000   0.35336   0.35336   0.35674   0.35674
     Eigenvalues ---    0.37742   0.41592   0.42599   0.45808   0.46149
     Eigenvalues ---    0.46431   0.46431   0.47592   0.48783   0.50139
     Eigenvalues ---    0.92658   0.926581000.000001000.000001000.00000
     Eigenvalues --- 1000.000001000.000001000.000001000.000001000.00000
     Eigenvalues --- 1000.000001000.000001000.000001000.000001000.00000
     Eigenvalues --- 1000.000001000.000001000.000001000.000001000.00000
     Eigenvalues --- 1000.000001000.000001000.000001000.000001000.00000
     Eigenvalues --- 1000.000001000.000001000.000001000.000001000.00000
     Eigenvalues --- 1000.000001000.00000
 RFO step:  Lambda=-1.53618399D-02 EMin= 9.79144978D-03
 Linear search not attempted -- first point.
 Maximum step size (   0.300) exceeded in Quadratic search.
    -- Step size scaled by   0.503
 Iteration  1 RMS(Cart)=  0.04536611 RMS(Int)=  0.00181920
 Iteration  2 RMS(Cart)=  0.00265725 RMS(Int)=  0.00083312
 Iteration  3 RMS(Cart)=  0.00000395 RMS(Int)=  0.00083311
 Iteration  4 RMS(Cart)=  0.00000000 RMS(Int)=  0.00083311
 Variable       Old X    -DE/DX   Delta X   Delta X   Delta X     New X
                                 (Linear)    (Quad)   (Total)
    R1        2.62925  -0.00559   0.00000  -0.00477  -0.00525   2.62400
    R2        2.61114  -0.00855   0.00000  -0.00852  -0.00852   2.60262
    R3        2.04594  -0.00235   0.00000  -0.00317  -0.00317   2.04277
    R4        2.62925  -0.00770   0.00000  -0.00699  -0.00747   2.62178
    R5        2.74742  -0.00216   0.00000  -0.00277  -0.00277   2.74465
    R6        2.61114  -0.00593   0.00000  -0.00596  -0.00595   2.60519
    R7        2.04594  -0.00240   0.00000  -0.00325  -0.00325   2.04269
    R8        2.65635  -0.00565   0.00000  -0.00720  -0.00672   2.64962
    R9        2.05132  -0.00211   0.00000  -0.00288  -0.00288   2.04845
   R10        2.65635  -0.00037   0.00000  -0.00142  -0.00094   2.65541
   R11        2.59725   0.00265   0.00000   0.00258   0.00258   2.59983
   R12        2.05132  -0.00232   0.00000  -0.00316  -0.00316   2.04816
   R13        2.31732  -0.01466   0.00000  -0.00783  -0.00783   2.30949
   R14        2.31732  -0.01475   0.00000  -0.00788  -0.00788   2.30944
   R15        1.90349  -0.00162   0.00000  -0.00170  -0.00170   1.90179
   R16        1.90349  -0.00165   0.00000  -0.00173  -0.00173   1.90176
    A1        2.08356  -0.00006   0.00000  -0.00065  -0.00059   2.08297
    A2        2.08485  -0.00021   0.00000  -0.00037  -0.00041   2.08444
    A3        2.11478   0.00027   0.00000   0.00102   0.00098   2.11576
    A4        2.11411  -0.00016   0.00000   0.00095   0.00054   2.11465
    A5        2.08454   0.00021   0.00000  -0.00024  -0.00004   2.08450
    A6        2.08454  -0.00004   0.00000  -0.00071  -0.00051   2.08402
    A7        2.08356   0.00075   0.00000   0.00090   0.00096   2.08452
    A8        2.08485  -0.00053   0.00000  -0.00090  -0.00093   2.08392
    A9        2.11478  -0.00022   0.00000   0.00000  -0.00004   2.11475
   A10        2.10521   0.00151   0.00000  -0.00160  -0.00059   2.10462
   A11        2.09042  -0.00057   0.00000   0.00133   0.00082   2.09124
   A12        2.08755  -0.00094   0.00000   0.00029  -0.00023   2.08732
   A13        2.07472  -0.00387   0.00000   0.00113  -0.00092   2.07380
   A14        2.10401  -0.00427   0.00000   0.00891   0.00461   2.10863
   A15        2.03430   0.01218   0.00000   0.04244   0.03876   2.07305
   A16        2.10521   0.00184   0.00000  -0.00069   0.00034   2.10555
   A17        2.09042  -0.00074   0.00000   0.00089   0.00037   2.09079
   A18        2.08755  -0.00111   0.00000  -0.00019  -0.00070   2.08685
   A19        2.05953   0.00022   0.00000   0.00041   0.00041   2.05994
   A20        2.05953   0.00004   0.00000   0.00007   0.00007   2.05960
   A21        2.16412  -0.00025   0.00000  -0.00048  -0.00048   2.16364
   A22        2.07376  -0.00104   0.00000  -0.00648  -0.00662   2.06714
   A23        2.07376   0.00022   0.00000  -0.00286  -0.00300   2.07076
   A24        2.01492  -0.00051   0.00000  -0.00546  -0.00562   2.00930
    D1        0.00048  -0.00123   0.00000  -0.01371  -0.01357  -0.01309
    D2       -3.13981  -0.00083   0.00000  -0.00929  -0.00918   3.13420
    D3        3.14140  -0.00049   0.00000  -0.00637  -0.00642   3.13498
    D4        0.00111  -0.00009   0.00000  -0.00194  -0.00203  -0.00091
    D5        0.00059  -0.00014   0.00000  -0.00219  -0.00234  -0.00175
    D6       -3.13705  -0.00003   0.00000  -0.00519  -0.00557   3.14057
    D7       -3.14032  -0.00090   0.00000  -0.00967  -0.00962   3.13325
    D8        0.00523  -0.00078   0.00000  -0.01266  -0.01285  -0.00762
    D9       -0.00048   0.00067   0.00000   0.00989   0.00998   0.00950
   D10       -3.14140   0.00112   0.00000   0.01135   0.01119  -3.13021
   D11        3.13981   0.00027   0.00000   0.00547   0.00559  -3.13779
   D12       -0.00111   0.00073   0.00000   0.00692   0.00680   0.00569
   D13        3.14078  -0.00019   0.00000  -0.00204  -0.00203   3.13875
   D14       -0.00046  -0.00020   0.00000  -0.00218  -0.00217  -0.00263
   D15        0.00046   0.00020   0.00000   0.00231   0.00229   0.00275
   D16       -3.14078   0.00019   0.00000   0.00216   0.00215  -3.13863
   D17       -0.00059   0.00127   0.00000   0.00983   0.00954   0.00896
   D18        3.13705   0.00198   0.00000   0.01696   0.01648  -3.12965
   D19        3.14032   0.00080   0.00000   0.00835   0.00831  -3.13456
   D20       -0.00523   0.00151   0.00000   0.01548   0.01525   0.01002
   D21        0.00162  -0.00260   0.00000  -0.02516  -0.02486  -0.02323
   D22        2.73623   0.01139   0.00000   0.12976   0.12837   2.86459
   D23       -3.13602  -0.00331   0.00000  -0.03228  -0.03179   3.11538
   D24       -0.40142   0.01068   0.00000   0.12264   0.12144  -0.27998
   D25       -0.00162   0.00203   0.00000   0.02129   0.02122   0.01960
   D26        3.13602   0.00191   0.00000   0.02429   0.02445  -3.12271
   D27       -2.75223  -0.00780   0.00000  -0.12028  -0.12123  -2.87345
   D28        0.38542  -0.00791   0.00000  -0.11728  -0.11800   0.26742
   D29        0.28145  -0.00213   0.00000  -0.03370  -0.03467   0.24678
   D30        2.89223  -0.00497   0.00000  -0.06528  -0.06617   2.82606
   D31        3.02509   0.00805   0.00000   0.10873   0.10962   3.13471
   D32       -0.64731   0.00521   0.00000   0.07715   0.07812  -0.56919
         Item               Value     Threshold  Converged?
 Maximum Force            0.014747     0.000015     NO 
 RMS     Force            0.004445     0.000010     NO 
 Maximum Displacement     0.201444     0.000060     NO 
 RMS     Displacement     0.045177     0.000040     NO 
 Predicted change in Energy=-6.506667D-03
 GradGradGradGradGradGradGradGradGradGradGradGradGradGradGradGradGradGrad

                          Input orientation:                          
 ---------------------------------------------------------------------
 Center     Atomic      Atomic             Coordinates (Angstroms)
 Number     Number       Type             X           Y           Z
 ---------------------------------------------------------------------
      1          6           0        0.180496    0.189468    0.001739
      2          6           0        0.187817    0.868006   -1.209720
      3          6           0        0.171682    0.183199   -2.416212
      4          6           0        0.136564   -1.194954   -2.412555
      5          6           0        0.106349   -1.904651   -1.203689
      6          6           0        0.141089   -1.187212    0.004038
      7          1           0        0.199715    0.751059    0.925198
      8          1           0        0.188655    0.739903   -3.342623
      9          1           0        0.135022   -1.736613   -3.351511
     10          1           0        0.136085   -1.724250    0.945461
     11          7           0        0.220009    2.320049   -1.214292
     12          8           0        0.228842    2.890839   -2.294903
     13          8           0        0.236852    2.897079   -0.137124
     14          7           0       -0.250989   -3.232896   -1.174964
     15          1           0       -0.280027   -3.740272   -2.043601
     16          1           0       -0.005026   -3.781323   -0.367804
 ---------------------------------------------------------------------
                    Distance matrix (angstroms):
                    1          2          3          4          5
     1  C    0.000000
     2  C    1.388560   0.000000
     3  C    2.417975   1.387388   0.000000
     4  C    2.783410   2.388565   1.378605   0.000000
     5  C    2.417414   2.773861   2.415284   1.402119   0.000000
     6  C    1.377246   2.387324   2.781469   2.416609   1.405180
     7  H    1.080985   2.138151   3.389435   3.864136   3.404948
     8  H    3.389367   2.136747   1.080947   2.147420   3.402276
     9  H    3.867317   3.372550   2.135838   1.083990   2.154576
    10  H    2.134221   3.371539   3.865290   3.399474   2.156913
    11  N    2.453501   1.452407   2.452158   3.714572   4.226242
    12  O    3.546027   2.295900   2.710959   4.088528   4.919601
    13  O    2.711754   2.295648   3.544521   4.683201   4.920488
    14  N    3.644639   4.124459   3.659105   2.415582   1.375773
    15  H    4.454027   4.706428   3.966926   2.605441   2.055297
    16  H    3.992263   4.728876   4.465941   3.300054   2.057427
                    6          7          8          9         10
     6  C    0.000000
     7  H    2.146827   0.000000
     8  H    3.862147   4.267850   0.000000
     9  H    3.400233   4.948023   2.477113   0.000000
    10  H    1.083841   2.476210   4.945956   4.296990   0.000000
    11  N    3.713683   2.653217   2.650970   4.586004   4.585622
    12  O    4.682236   3.866336   2.392877   4.747477   5.639823
    13  O    4.087851   2.394850   3.864059   5.640367   4.747507
    14  N    2.393448   4.526115   4.546996   2.669311   2.630978
    15  H    3.299739   5.405181   4.688187   2.428486   3.629323
    16  H    2.624695   4.717654   5.415584   3.619801   2.444611
                   11         12         13         14         15
    11  N    0.000000
    12  O    1.222129   0.000000
    13  O    1.222103   2.157802   0.000000
    14  N    5.573023   6.243768   6.236320   0.000000
    15  H    6.137205   6.655354   6.925045   1.006381   0.000000
    16  H    6.163921   6.948823   6.686760   1.006368   1.698707
                   16
    16  H    0.000000
 Stoichiometry    C6H6N2O2
 Framework group  C1[X(C6H6N2O2)]
 Deg. of freedom    42
 Full point group                 C1      NOp   1
 Largest Abelian subgroup         C1      NOp   1
 Largest concise Abelian subgroup C1      NOp   1
                         Standard orientation:                         
 ---------------------------------------------------------------------
 Center     Atomic      Atomic             Coordinates (Angstroms)
 Number     Number       Type             X           Y           Z
 ---------------------------------------------------------------------
      1          6           0        0.017641   -1.208106   -0.042048
      2          6           0        0.701393    0.000216   -0.018773
      3          6           0        0.022533    1.209861   -0.046224
      4          6           0       -1.355491    1.212624   -0.086116
      5          6           0       -2.071589    0.007162   -0.088240
      6          6           0       -1.359140   -1.203967   -0.077585
      7          1           0        0.574997   -2.134185   -0.025860
      8          1           0        0.583787    2.133640   -0.037725
      9          1           0       -1.891909    2.154013   -0.118951
     10          1           0       -1.900178   -2.142912   -0.096886
     11          7           0        2.153043   -0.001951    0.028057
     12          8           0        2.728661    1.076005    0.044643
     13          8           0        2.724946   -1.081791    0.048260
     14          7           0       -3.417423   -0.013601    0.196452
     15          1           0       -3.921443    0.857466    0.193304
     16          1           0       -3.955539   -0.819610   -0.074762
 ---------------------------------------------------------------------
 Rotational constants (GHZ):      3.9404106      0.8321204      0.6888988
 Basis read from rwf:  (5D, 7F)
 There are   430 symmetry adapted basis functions of A   symmetry.
 Integral buffers will be    131072 words long.
 Raffenetti 2 integral format.
 Two-electron integral symmetry is turned on.
   430 basis functions,   652 primitive gaussians,   490 cartesian basis functions
    36 alpha electrons       36 beta electrons
       nuclear repulsion energy       497.6984472451 Hartrees.
 NAtoms=   16 NActive=   16 NUniq=   16 SFac= 7.50D-01 NAtFMM=   80 NAOKFM=F Big=F
 One-electron integrals computed using PRISM.
 NBasis=   430 RedAO= T  NBF=   430
 NBsUse=   429 1.00D-06 NBFU=   429
 Initial guess read from the read-write file.
 B after Tr=     0.000000    0.000000    0.000000
         Rot=    1.000000    0.000000    0.000000    0.000000 Ang=   0.00 deg.
 Initial guess orbital symmetries:
       Occupied  (A) (A) (A) (A) (A) (A) (A) (A) (A) (A) (A) (A)
                 (A) (A) (A) (A) (A) (A) (A) (A) (A) (A) (A) (A)
                 (A) (A) (A) (A) (A) (A) (A) (A) (A) (A) (A) (A)
       Virtual   (A) (A) (A) (A) (A) (A) (A) (A) (A) (A) (A) (A)
                 (A) (A) (A) (A) (A) (A) (A) (A) (A) (A) (A) (A)
                 (A) (A) (A) (A) (A) (A) (A) (A) (A) (A) (A) (A)
                 (A) (A) (A) (A) (A) (A) (A) (A) (A) (A) (A) (A)
                 (A) (A) (A) (A) (A) (A) (A) (A) (A) (A) (A) (A)
                 (A) (A) (A) (A) (A) (A) (A) (A) (A) (A) (A) (A)
                 (A) (A) (A) (A) (A) (A) (A) (A) (A) (A) (A) (A)
                 (A) (A) (A) (A) (A) (A) (A) (A) (A) (A) (A) (A)
                 (A) (A) (A) (A) (A) (A) (A) (A) (A) (A) (A) (A)
                 (A) (A) (A) (A) (A) (A) (A) (A) (A) (A) (A) (A)
                 (A) (A) (A) (A) (A) (A) (A) (A) (A) (A) (A) (A)
                 (A) (A) (A) (A) (A) (A) (A) (A) (A) (A) (A) (A)
                 (A) (A) (A) (A) (A) (A) (A) (A) (A) (A) (A) (A)
                 (A) (A) (A) (A) (A) (A) (A) (A) (A) (A) (A) (A)
                 (A) (A) (A) (A) (A) (A) (A) (A) (A) (A) (A) (A)
                 (A) (A) (A) (A) (A) (A) (A) (A) (A) (A) (A) (A)
                 (A) (A) (A) (A) (A) (A) (A) (A) (A) (A) (A) (A)
                 (A) (A) (A) (A) (A) (A) (A) (A) (A) (A) (A) (A)
                 (A) (A) (A) (A) (A) (A) (A) (A) (A) (A) (A) (A)
                 (A) (A) (A) (A) (A) (A) (A) (A) (A) (A) (A) (A)
                 (A) (A) (A) (A) (A) (A) (A) (A) (A) (A) (A) (A)
                 (A) (A) (A) (A) (A) (A) (A) (A) (A) (A) (A) (A)
                 (A) (A) (A) (A) (A) (A) (A) (A) (A) (A) (A) (A)
                 (A) (A) (A) (A) (A) (A) (A) (A) (A) (A) (A) (A)
                 (A) (A) (A) (A) (A) (A) (A) (A) (A) (A) (A) (A)
                 (A) (A) (A) (A) (A) (A) (A) (A) (A) (A) (A) (A)
                 (A) (A) (A) (A) (A) (A) (A) (A) (A) (A) (A) (A)
                 (A) (A) (A) (A) (A) (A) (A) (A) (A) (A) (A) (A)
                 (A) (A) (A) (A) (A) (A) (A) (A) (A) (A) (A) (A)
                 (A) (A) (A) (A) (A) (A) (A) (A) (A) (A) (A) (A)
                 (A) (A) (A) (A) (A) (A) (A) (A) (A) (A) (A) (A)
                 (A) (A) (A) (A) (A) (A) (A) (A) (A) (A) (A) (A)
                 (A) (A) (A) (A) (A) (A) (A) (A) (A)
 Harris functional with IExCor=20419 diagonalized for initial guess.
 ExpMin= 4.85D-02 ExpMax= 2.70D+04 ExpMxC= 9.22D+02 IAcc=3 IRadAn=         5 AccDes= 0.00D+00
 HarFok:  IExCor=20419 AccDes= 0.00D+00 IRadAn=         5 IDoV= 1
 ScaDFX=  1.000000  1.000000  1.000000  1.000000
 FoFCou: FMM=F IPFlag=           0 FMFlag=      100000 FMFlg1=           0
         NFxFlg=           0 DoJE=T BraDBF=F KetDBF=T FulRan=T
         Omega=  0.000000  0.000000  1.000000  0.000000  0.000000 ICntrl=     500 IOpCl=  0
         NMat0=    1 NMatS0=    1 NMatT0=    0 NMatD0=    1 NMtDS0=    0 NMtDT0=    0
         I1Cent=           4 NGrid=           0.
 Petite list used in FoFCou.
 FoFJK:  IHMeth= 1 ICntrl=     0 DoSepK=T KAlg= 1 I1Cent= 0 FoldK=F
 Gradient too large for Newton-Raphson -- use scaled steepest descent instead.
 FoFJK:  IHMeth= 1 ICntrl=     0 DoSepK=T KAlg= 1 I1Cent= 0 FoldK=F
 FoFJK:  IHMeth= 1 ICntrl=     0 DoSepK=T KAlg= 1 I1Cent= 0 FoldK=F
 FoFJK:  IHMeth= 1 ICntrl=     0 DoSepK=T KAlg= 1 I1Cent= 0 FoldK=F
 FoFJK:  IHMeth= 1 ICntrl=     0 DoSepK=T KAlg= 1 I1Cent= 0 FoldK=F
 FoFJK:  IHMeth= 1 ICntrl=     0 DoSepK=T KAlg= 1 I1Cent= 0 FoldK=F
 FoFJK:  IHMeth= 1 ICntrl=     0 DoSepK=T KAlg= 1 I1Cent= 0 FoldK=F
 FoFJK:  IHMeth= 1 ICntrl=     0 DoSepK=T KAlg= 1 I1Cent= 0 FoldK=F
 Gradient too large for Newton-Raphson -- use scaled steepest descent instead.
 FoFJK:  IHMeth= 1 ICntrl=     0 DoSepK=T KAlg= 1 I1Cent= 0 FoldK=F
 FoFJK:  IHMeth= 1 ICntrl=     0 DoSepK=T KAlg= 1 I1Cent= 0 FoldK=F
 FoFJK:  IHMeth= 1 ICntrl=     0 DoSepK=T KAlg= 1 I1Cent= 0 FoldK=F
 LinEq1:  Iter=  0 NonCon=     1 RMS=4.06D-05 Max=1.30D-03
 AX will form     1 AO Fock derivatives at one time.
 FoFJK:  IHMeth= 1 ICntrl=     0 DoSepK=T KAlg= 1 I1Cent= 0 FoldK=F
 LinEq1:  Iter=  1 NonCon=     1 RMS=3.40D-05 Max=1.15D-03
 FoFJK:  IHMeth= 1 ICntrl=     0 DoSepK=T KAlg= 1 I1Cent= 0 FoldK=F
 LinEq1:  Iter=  2 NonCon=     1 RMS=1.53D-05 Max=1.03D-03
 FoFJK:  IHMeth= 1 ICntrl=     0 DoSepK=T KAlg= 1 I1Cent= 0 FoldK=F
 LinEq1:  Iter=  3 NonCon=     1 RMS=1.08D-05 Max=6.50D-04
 FoFJK:  IHMeth= 1 ICntrl=     0 DoSepK=T KAlg= 1 I1Cent= 0 FoldK=F
 LinEq1:  Iter=  4 NonCon=     1 RMS=6.39D-06 Max=2.89D-04
 FoFJK:  IHMeth= 1 ICntrl=     0 DoSepK=T KAlg= 1 I1Cent= 0 FoldK=F
 LinEq1:  Iter=  5 NonCon=     1 RMS=3.22D-06 Max=1.43D-04
 FoFJK:  IHMeth= 1 ICntrl=     0 DoSepK=T KAlg= 1 I1Cent= 0 FoldK=F
 LinEq1:  Iter=  6 NonCon=     1 RMS=1.81D-06 Max=6.39D-05
 FoFJK:  IHMeth= 1 ICntrl=     0 DoSepK=T KAlg= 1 I1Cent= 0 FoldK=F
 LinEq1:  Iter=  7 NonCon=     1 RMS=1.06D-06 Max=3.92D-05
 FoFJK:  IHMeth= 1 ICntrl=     0 DoSepK=T KAlg= 1 I1Cent= 0 FoldK=F
 LinEq1:  Iter=  8 NonCon=     1 RMS=4.91D-07 Max=1.46D-05
 FoFJK:  IHMeth= 1 ICntrl=     0 DoSepK=T KAlg= 1 I1Cent= 0 FoldK=F
 LinEq1:  Iter=  9 NonCon=     1 RMS=3.02D-07 Max=7.70D-06
 FoFJK:  IHMeth= 1 ICntrl=     0 DoSepK=T KAlg= 1 I1Cent= 0 FoldK=F
 LinEq1:  Iter= 10 NonCon=     1 RMS=9.06D-08 Max=2.11D-06
 FoFJK:  IHMeth= 1 ICntrl=     0 DoSepK=T KAlg= 1 I1Cent= 0 FoldK=F
 LinEq1:  Iter= 11 NonCon=     1 RMS=4.38D-08 Max=1.62D-06
 FoFJK:  IHMeth= 1 ICntrl=     0 DoSepK=T KAlg= 1 I1Cent= 0 FoldK=F
 LinEq1:  Iter= 12 NonCon=     1 RMS=1.30D-08 Max=4.04D-07
 FoFJK:  IHMeth= 1 ICntrl=     0 DoSepK=T KAlg= 1 I1Cent= 0 FoldK=F
 LinEq1:  Iter= 13 NonCon=     1 RMS=6.20D-09 Max=2.37D-07
 FoFJK:  IHMeth= 1 ICntrl=     0 DoSepK=T KAlg= 1 I1Cent= 0 FoldK=F
 LinEq1:  Iter= 14 NonCon=     0 RMS=2.89D-09 Max=1.40D-07
 Linear equations converged to 1.682D-08 1.682D-07 after    14 iterations.
 FoFJK:  IHMeth= 1 ICntrl=     0 DoSepK=T KAlg= 1 I1Cent= 0 FoldK=F
 FoFJK:  IHMeth= 1 ICntrl=     0 DoSepK=T KAlg= 1 I1Cent= 0 FoldK=F
 FoFJK:  IHMeth= 1 ICntrl=     0 DoSepK=T KAlg= 1 I1Cent= 0 FoldK=F
 LinEq1:  Iter=  0 NonCon=     1 RMS=6.44D-08 Max=3.00D-06
 FoFJK:  IHMeth= 1 ICntrl=     0 DoSepK=T KAlg= 1 I1Cent= 0 FoldK=F
 LinEq1:  Iter=  1 NonCon=     1 RMS=4.61D-08 Max=1.48D-06
 FoFJK:  IHMeth= 1 ICntrl=     0 DoSepK=T KAlg= 1 I1Cent= 0 FoldK=F
 LinEq1:  Iter=  2 NonCon=     1 RMS=2.20D-08 Max=1.15D-06
 FoFJK:  IHMeth= 1 ICntrl=     0 DoSepK=T KAlg= 1 I1Cent= 0 FoldK=F
 LinEq1:  Iter=  3 NonCon=     1 RMS=2.00D-08 Max=8.88D-07
 FoFJK:  IHMeth= 1 ICntrl=     0 DoSepK=T KAlg= 1 I1Cent= 0 FoldK=F
 LinEq1:  Iter=  4 NonCon=     1 RMS=1.23D-08 Max=3.90D-07
 FoFJK:  IHMeth= 1 ICntrl=     0 DoSepK=T KAlg= 1 I1Cent= 0 FoldK=F
 LinEq1:  Iter=  5 NonCon=     1 RMS=7.52D-09 Max=2.42D-07
 FoFJK:  IHMeth= 1 ICntrl=     0 DoSepK=T KAlg= 1 I1Cent= 0 FoldK=F
 LinEq1:  Iter=  6 NonCon=     1 RMS=3.20D-09 Max=7.76D-08
 FoFJK:  IHMeth= 1 ICntrl=     0 DoSepK=T KAlg= 1 I1Cent= 0 FoldK=F
 LinEq1:  Iter=  7 NonCon=     1 RMS=1.79D-09 Max=6.66D-08
 FoFJK:  IHMeth= 1 ICntrl=     0 DoSepK=T KAlg= 1 I1Cent= 0 FoldK=F
 LinEq1:  Iter=  8 NonCon=     1 RMS=7.59D-10 Max=2.74D-08
 FoFJK:  IHMeth= 1 ICntrl=     0 DoSepK=T KAlg= 1 I1Cent= 0 FoldK=F
 LinEq1:  Iter=  9 NonCon=     1 RMS=4.04D-10 Max=1.48D-08
 FoFJK:  IHMeth= 1 ICntrl=     0 DoSepK=T KAlg= 1 I1Cent= 0 FoldK=F
 LinEq1:  Iter= 10 NonCon=     1 RMS=2.21D-10 Max=1.05D-08
 FoFJK:  IHMeth= 1 ICntrl=     0 DoSepK=T KAlg= 1 I1Cent= 0 FoldK=F
 LinEq1:  Iter= 11 NonCon=     1 RMS=9.33D-11 Max=3.43D-09
 FoFJK:  IHMeth= 1 ICntrl=     0 DoSepK=T KAlg= 1 I1Cent= 0 FoldK=F
 LinEq1:  Iter= 12 NonCon=     1 RMS=4.24D-11 Max=1.54D-09
 FoFJK:  IHMeth= 1 ICntrl=     0 DoSepK=T KAlg= 1 I1Cent= 0 FoldK=F
 LinEq1:  Iter= 13 NonCon=     0 RMS=1.87D-11 Max=4.43D-10
 Linear equations converged to 1.019D-10 1.019D-09 after    13 iterations.
 FoFJK:  IHMeth= 1 ICntrl=     0 DoSepK=T KAlg= 1 I1Cent= 0 FoldK=F
 SCF Done:  E(RCAM-B3LYP) =  -492.084660507     a.u. after    5 cycles
            Convg  =    0.1677D-08                    42 Fock formations.
              S**2 =  0.0000                  -V/T =  2.0041
 Calling FoFJK, ICntrl=      2127 FMM=F ISym2X=0 I1Cent= 0 IOpClX= 0 NMat=1 NMatS=1 NMatT=0.
 FoFJK:  IHMeth= 1 ICntrl=  2127 DoSepK=T KAlg= 1 I1Cent= 0 FoldK=F
 ***** Axes restored to original set *****
 -------------------------------------------------------------------
 Center     Atomic                   Forces (Hartrees/Bohr)
 Number     Number              X              Y              Z
 -------------------------------------------------------------------
      1        6           0.003042069   -0.002039918   -0.001614361
      2        6          -0.000106432   -0.002351544   -0.000750378
      3        6           0.002557732   -0.000731386    0.002281670
      4        6           0.004427376   -0.000817230    0.001748609
      5        6          -0.024595758    0.005216250    0.003668168
      6        6           0.007337343    0.002383114   -0.002298781
      7        1          -0.000145995   -0.000519062   -0.001065408
      8        1          -0.000067394   -0.000514041    0.001039676
      9        1          -0.002014941    0.000532234    0.000922883
     10        1          -0.002344489    0.000432658   -0.001018755
     11        7          -0.000015595    0.008408262   -0.000083530
     12        8          -0.000102862   -0.004198242    0.007662701
     13        8          -0.000144176   -0.004285967   -0.007611718
     14        7           0.010319473   -0.002306673   -0.003278260
     15        1           0.002552455    0.000195467    0.000950628
     16        1          -0.000698805    0.000596078   -0.000553144
 -------------------------------------------------------------------
 Cartesian Forces:  Max     0.024595758 RMS     0.004867831

 GradGradGradGradGradGradGradGradGradGradGradGradGradGradGradGradGradGrad
 Berny optimization.
 Using GEDIIS/GDIIS optimizer.
 Internal  Forces:  Max     0.008736922 RMS     0.002495554
 Search for a local minimum.
 Step number   2 out of a maximum of   82
 All quantities printed in internal units (Hartrees-Bohrs-Radians)
 Mixed Optimization -- RFO/linear search
 Update second derivatives using D2CorX and points    1    2
 DE= -6.07D-03 DEPred=-6.51D-03 R= 9.33D-01
 SS=  1.41D+00  RLast= 3.00D-01 DXNew= 5.0454D-01 8.9926D-01
 Trust test= 9.33D-01 RLast= 3.00D-01 DXMaxT set to 5.05D-01
 Use linear search instead of GDIIS.
     Eigenvalues ---    0.00979   0.00979   0.01827   0.01939   0.02040
     Eigenvalues ---    0.02151   0.02177   0.02230   0.02234   0.02271
     Eigenvalues ---    0.02273   0.03063   0.03290   0.15992   0.16000
     Eigenvalues ---    0.16000   0.16000   0.16000   0.16005   0.22010
     Eigenvalues ---    0.22990   0.23854   0.24010   0.25000   0.25000
     Eigenvalues ---    0.25022   0.35315   0.35337   0.35651   0.35674
     Eigenvalues ---    0.37822   0.41866   0.42688   0.45464   0.45903
     Eigenvalues ---    0.46423   0.46431   0.47618   0.48749   0.50937
     Eigenvalues ---    0.90545   0.926581000.000001000.000001000.00000
     Eigenvalues --- 1000.000001000.000001000.000001000.000001000.00000
     Eigenvalues --- 1000.000001000.000001000.000001000.000001000.00000
     Eigenvalues --- 1000.000001000.000001000.000001000.000001000.00000
     Eigenvalues --- 1000.000001000.000001000.000001000.000001000.00000
     Eigenvalues --- 1000.000001000.000001000.000001000.000001000.00000
     Eigenvalues --- 1000.000001000.00000
 RFO step:  Lambda=-1.32271498D-03 EMin= 9.79103432D-03
 Quartic linear search produced a step of  1.54059.
 Iteration  1 RMS(Cart)=  0.08453582 RMS(Int)=  0.01160345
 Iteration  2 RMS(Cart)=  0.01810726 RMS(Int)=  0.00305211
 Iteration  3 RMS(Cart)=  0.00030892 RMS(Int)=  0.00304514
 Iteration  4 RMS(Cart)=  0.00000090 RMS(Int)=  0.00304514
 Variable       Old X    -DE/DX   Delta X   Delta X   Delta X     New X
                                 (Linear)    (Quad)   (Total)
    R1        2.62400  -0.00293  -0.00809   0.00244  -0.00740   2.61660
    R2        2.60262  -0.00343  -0.01313   0.00806  -0.00506   2.59756
    R3        2.04277  -0.00118  -0.00489   0.00136  -0.00353   2.03923
    R4        2.62178  -0.00386  -0.01151   0.00415  -0.00909   2.61269
    R5        2.74465  -0.00008  -0.00427   0.00793   0.00366   2.74831
    R6        2.60519  -0.00266  -0.00917   0.00431  -0.00486   2.60033
    R7        2.04269  -0.00116  -0.00500   0.00176  -0.00324   2.03945
    R8        2.64962  -0.00348  -0.01036  -0.00156  -0.01019   2.63943
    R9        2.04845  -0.00106  -0.00443   0.00122  -0.00321   2.04524
   R10        2.65541  -0.00290  -0.00145  -0.01591  -0.01563   2.63977
   R11        2.59983  -0.00176   0.00398  -0.01672  -0.01274   2.58710
   R12        2.04816  -0.00109  -0.00487   0.00190  -0.00296   2.04520
   R13        2.30949  -0.00874  -0.01206  -0.00038  -0.01244   2.29705
   R14        2.30944  -0.00873  -0.01213  -0.00023  -0.01237   2.29707
   R15        1.90179  -0.00099  -0.00262  -0.00023  -0.00285   1.89893
   R16        1.90176  -0.00094  -0.00266   0.00013  -0.00253   1.89924
    A1        2.08297   0.00027  -0.00091   0.00435   0.00373   2.08670
    A2        2.08444  -0.00025  -0.00063  -0.00164  -0.00243   2.08201
    A3        2.11576  -0.00003   0.00151  -0.00264  -0.00130   2.11446
    A4        2.11465  -0.00061   0.00083  -0.00300  -0.00361   2.11104
    A5        2.08450   0.00030  -0.00006   0.00068   0.00132   2.08582
    A6        2.08402   0.00032  -0.00079   0.00238   0.00230   2.08632
    A7        2.08452   0.00018   0.00148  -0.00145   0.00032   2.08484
    A8        2.08392  -0.00019  -0.00143   0.00063  -0.00094   2.08298
    A9        2.11475   0.00000  -0.00006   0.00082   0.00062   2.11536
   A10        2.10462   0.00070  -0.00091  -0.00330  -0.00048   2.10415
   A11        2.09124  -0.00030   0.00126   0.00075   0.00013   2.09137
   A12        2.08732  -0.00040  -0.00035   0.00255   0.00029   2.08761
   A13        2.07380  -0.00119  -0.00142   0.01191   0.00324   2.07703
   A14        2.10863  -0.00258   0.00710   0.00465  -0.00384   2.10479
   A15        2.07305   0.00521   0.05971  -0.01627   0.02805   2.10110
   A16        2.10555   0.00062   0.00052  -0.00725  -0.00299   2.10256
   A17        2.09079  -0.00010   0.00057   0.00518   0.00385   2.09464
   A18        2.08685  -0.00052  -0.00108   0.00207  -0.00089   2.08596
   A19        2.05994  -0.00006   0.00063  -0.00193  -0.00132   2.05862
   A20        2.05960  -0.00018   0.00011  -0.00204  -0.00196   2.05765
   A21        2.16364   0.00024  -0.00074   0.00397   0.00320   2.16684
   A22        2.06714  -0.00083  -0.01020  -0.00379  -0.01463   2.05252
   A23        2.07076   0.00004  -0.00463  -0.00160  -0.00686   2.06390
   A24        2.00930  -0.00007  -0.00867   0.00333  -0.00610   2.00320
    D1       -0.01309  -0.00044  -0.02091   0.02275   0.00229  -0.01079
    D2        3.13420  -0.00031  -0.01414   0.01123  -0.00255   3.13166
    D3        3.13498  -0.00023  -0.00989   0.01110   0.00102   3.13600
    D4       -0.00091  -0.00009  -0.00312  -0.00042  -0.00382  -0.00473
    D5       -0.00175  -0.00002  -0.00360   0.01514   0.01106   0.00931
    D6        3.14057  -0.00006  -0.00857   0.01284   0.00302  -3.13960
    D7        3.13325  -0.00024  -0.01482   0.02701   0.01235  -3.13759
    D8       -0.00762  -0.00029  -0.01979   0.02471   0.00431  -0.00331
    D9        0.00950   0.00025   0.01538  -0.01986  -0.00419   0.00530
   D10       -3.13021   0.00042   0.01725  -0.01913  -0.00238  -3.13259
   D11       -3.13779   0.00011   0.00861  -0.00834   0.00065  -3.13715
   D12        0.00569   0.00029   0.01048  -0.00762   0.00246   0.00815
   D13        3.13875  -0.00003  -0.00312   0.01331   0.01024  -3.13420
   D14       -0.00263  -0.00009  -0.00334   0.00102  -0.00227  -0.00490
   D15        0.00275   0.00010   0.00353   0.00201   0.00549   0.00824
   D16       -3.13863   0.00005   0.00331  -0.01028  -0.00702   3.13754
   D17        0.00896   0.00042   0.01470  -0.02110  -0.00731   0.00165
   D18       -3.12965   0.00073   0.02540  -0.02217   0.00169  -3.12796
   D19       -3.13456   0.00024   0.01280  -0.02184  -0.00916   3.13947
   D20        0.01002   0.00055   0.02349  -0.02290  -0.00016   0.00986
   D21       -0.02323  -0.00085  -0.03830   0.05740   0.02019  -0.00304
   D22        2.86459   0.00633   0.19776   0.05637   0.24951   3.11410
   D23        3.11538  -0.00116  -0.04897   0.05846   0.01121   3.12659
   D24       -0.27998   0.00603   0.18709   0.05743   0.24053  -0.03945
   D25        0.01960   0.00065   0.03270  -0.05447  -0.02210  -0.00250
   D26       -3.12271   0.00069   0.03766  -0.05217  -0.01409  -3.13681
   D27       -2.87345  -0.00526  -0.18676  -0.05644  -0.24624  -3.11969
   D28        0.26742  -0.00522  -0.18180  -0.05414  -0.23824   0.02918
   D29        0.24678  -0.00105  -0.05341   0.04662  -0.00877   0.23801
   D30        2.82606  -0.00269  -0.10194   0.04380  -0.05975   2.76631
   D31        3.13471   0.00522   0.16888   0.04962   0.22010  -2.92837
   D32       -0.56919   0.00358   0.12035   0.04679   0.16912  -0.40007
         Item               Value     Threshold  Converged?
 Maximum Force            0.008737     0.000015     NO 
 RMS     Force            0.002496     0.000010     NO 
 Maximum Displacement     0.487286     0.000060     NO 
 RMS     Displacement     0.100509     0.000040     NO 
 Predicted change in Energy=-3.575352D-03
 GradGradGradGradGradGradGradGradGradGradGradGradGradGradGradGradGradGrad

                          Input orientation:                          
 ---------------------------------------------------------------------
 Center     Atomic      Atomic             Coordinates (Angstroms)
 Number     Number       Type             X           Y           Z
 ---------------------------------------------------------------------
      1          6           0        0.148029    0.188806   -0.002465
      2          6           0        0.187434    0.865329   -1.209946
      3          6           0        0.127240    0.181895   -2.410287
      4          6           0        0.020395   -1.189965   -2.403158
      5          6           0       -0.029324   -1.892107   -1.196771
      6          6           0        0.034756   -1.181071    0.003924
      7          1           0        0.202094    0.748740    0.918426
      8          1           0        0.168445    0.734668   -3.336290
      9          1           0       -0.014416   -1.732067   -3.339251
     10          1           0        0.001422   -1.717155    0.943508
     11          7           0        0.294764    2.315698   -1.215286
     12          8           0        0.319158    2.881228   -2.290985
     13          8           0        0.341223    2.886460   -0.143065
     14          7           0       -0.167885   -3.254084   -1.188441
     15          1           0       -0.022166   -3.742179   -2.054638
     16          1           0        0.121966   -3.756762   -0.367838
 ---------------------------------------------------------------------
                    Distance matrix (angstroms):
                    1          2          3          4          5
     1  C    0.000000
     2  C    1.384647   0.000000
     3  C    2.407921   1.382578   0.000000
     4  C    2.771394   2.382412   1.376033   0.000000
     5  C    2.405830   2.765973   2.408031   1.396726   0.000000
     6  C    1.374567   2.384228   2.773922   2.407141   1.396906
     7  H    1.079115   2.131613   3.377461   3.850261   3.391413
     8  H    3.378280   2.130440   1.079231   2.144031   3.393612
     9  H    3.853606   3.364691   2.132203   1.082293   2.148501
    10  H    2.132849   3.367668   3.856184   3.387988   2.147638
    11  N    2.452781   1.454345   2.451368   3.711602   4.220308
    12  O    3.537760   2.291255   2.708776   4.083682   4.909529
    13  O    2.708216   2.290603   3.535641   4.672065   4.907373
    14  N    3.655111   4.134764   3.658682   2.402410   1.369033
    15  H    4.437682   4.688983   3.942990   2.576252   2.039302
    16  H    3.962535   4.698633   4.436738   3.277391   2.046206
                    6          7          8          9         10
     6  C    0.000000
     7  H    2.142075   0.000000
     8  H    3.852916   4.254872   0.000000
     9  H    3.388633   4.932453   2.473505   0.000000
    10  H    1.082273   2.474174   4.935181   4.282814   0.000000
    11  N    3.712340   2.648899   2.648447   4.581618   4.583704
    12  O    4.674374   3.855065   2.392300   4.742639   5.630988
    13  O    4.081708   2.390809   3.854446   5.627866   4.742297
    14  N    2.400038   4.538543   4.542743   2.639332   2.633633
    15  H    3.286364   5.390524   4.660593   2.385549   3.618032
    16  H    2.603842   4.686197   5.383941   3.598234   2.427788
                   11         12         13         14         15
    11  N    0.000000
    12  O    1.215545   0.000000
    13  O    1.215560   2.148040   0.000000
    14  N    5.589028   6.252589   6.249663   0.000000
    15  H    6.123956   6.636407   6.908330   1.004872   0.000000
    16  H    6.133742   6.913776   6.650639   1.005032   1.693009
                   16
    16  H    0.000000
 Stoichiometry    C6H6N2O2
 Framework group  C1[X(C6H6N2O2)]
 Deg. of freedom    42
 Full point group                 C1      NOp   1
 Largest Abelian subgroup         C1      NOp   1
 Largest concise Abelian subgroup C1      NOp   1
                         Standard orientation:                         
 ---------------------------------------------------------------------
 Center     Atomic      Atomic             Coordinates (Angstroms)
 Number     Number       Type             X           Y           Z
 ---------------------------------------------------------------------
      1          6           0       -0.019063   -1.203900    0.002904
      2          6           0       -0.701553    0.000863    0.003696
      3          6           0       -0.020426    1.204020    0.003967
[...]
 ! D5    D(2,1,6,5)              0.0291         -DE/DX =    0.0                 !
 ! D6    D(2,1,6,10)          -179.7789         -DE/DX =    0.0                 !
 ! D7    D(7,1,6,5)           -179.9256         -DE/DX =    0.0                 !
 ! D8    D(7,1,6,10)             0.2664         -DE/DX =    0.0                 !
 ! D9    D(1,2,3,4)             -0.0203         -DE/DX =    0.0                 !
 ! D10   D(1,2,3,8)           -179.9759         -DE/DX =    0.0                 !
 ! D11   D(11,2,3,4)           179.9115         -DE/DX =    0.0                 !
 ! D12   D(11,2,3,8)            -0.0441         -DE/DX =    0.0                 !
 ! D13   D(1,2,11,12)          179.9588         -DE/DX =    0.0                 !
 ! D14   D(1,2,11,13)           -0.0277         -DE/DX =    0.0                 !
 ! D15   D(3,2,11,12)            0.0259         -DE/DX =    0.0                 !
 ! D16   D(3,2,11,13)         -179.9606         -DE/DX =    0.0                 !
 ! D17   D(2,3,4,5)             -0.0293         -DE/DX =    0.0                 !
 ! D18   D(2,3,4,9)            179.7787         -DE/DX =    0.0                 !
 ! D19   D(8,3,4,5)            179.9254         -DE/DX =    0.0                 !
 ! D20   D(8,3,4,9)             -0.2665         -DE/DX =    0.0                 !
 ! D21   D(3,4,5,6)              0.0772         -DE/DX =    0.0                 !
 ! D22   D(3,4,5,14)           178.2026         -DE/DX =    0.0                 !
 ! D23   D(9,4,5,6)           -179.7314         -DE/DX =    0.0                 !
 ! D24   D(9,4,5,14)            -1.606          -DE/DX =    0.0                 !
 ! D25   D(4,5,6,1)             -0.0771         -DE/DX =    0.0                 !
 ! D26   D(4,5,6,10)           179.7315         -DE/DX =    0.0                 !
 ! D27   D(14,5,6,1)          -178.2025         -DE/DX =    0.0                 !
 ! D28   D(14,5,6,10)            1.6061         -DE/DX =    0.0                 !
 ! D29   D(4,5,14,15)           16.9267         -DE/DX =    0.0                 !
 ! D30   D(4,5,14,16)          164.981          -DE/DX =    0.0                 !
 ! D31   D(6,5,14,15)         -164.9809         -DE/DX =    0.0                 !
 ! D32   D(6,5,14,16)          -16.9266         -DE/DX =    0.0                 !
 --------------------------------------------------------------------------------
 GradGradGradGradGradGradGradGradGradGradGradGradGradGradGradGradGradGrad

 1\1\GINC-DLT01\Freq\RCAM-B3LYP\Gen\C6H6N2O2\MATHEUSMAXIMO\23-Oct-2022\
 0\\#N Geom=AllCheck Guess=TCheck SCRF=Check GenChk RCAM-B3LYP/ChkBas F
 req\\NA CAM-B3LYP def2-TZVPD\\0,1\C,0.1478504258,0.1898111632,-0.00238
 6189\C,0.1848601281,0.8668922741,-1.2093207302\C,0.121968225,0.1849520
 208,-2.4124420991\C,0.0215761611,-1.1866400181,-2.4078497157\C,-0.0166
 372993,-1.8942635544,-1.2015896819\C,0.0474444243,-1.1817840836,0.0007
 085293\H,0.1990936221,0.7484178498,0.9198402912\H,0.1533703877,0.73983
 42075,-3.3378009134\H,-0.0316285176,-1.7257338103,-3.3450111641\H,0.01
 44050513,-1.7170932501,0.9409622414\N,0.2930443078,2.3180273775,-1.213
 4094308\O,0.3239666899,2.8834610816,-2.2893244964\O,0.3470078761,2.887
 7987557,-0.1406963951\N,-0.1535570976,-3.2578462152,-1.1973685454\H,0.
 0310733431,-3.7609124382,-2.0469139781\H,0.0492970321,-3.7574880702,-0
 .3499608427\\Version=EM64L-G09RevA.02\State=1-A\HF=-492.0887206\RMSD=0
 .000e+00\RMSF=2.638e-07\ZeroPoint=0.1209503\Thermal=0.1291622\Dipole=0
 .0507139,-2.765814,0.0050338\DipoleDeriv=-0.0357297,0.0398168,-0.00574
 78,0.0413744,0.5075114,-0.08476,-0.0189489,-0.2842426,0.0657885,-0.014
 3104,-0.0734626,-0.0016105,-0.0782438,-0.997773,0.0024931,-0.0016007,0
 .0024417,-0.1781547,-0.0351568,0.0459145,0.007726,0.0432476,0.5089887,
 0.0820625,0.0209312,0.2815336,0.0637375,-0.1857244,-0.0129793,0.010555
 1,-0.0366779,-0.6416681,0.0448936,0.054655,0.5537654,0.0067124,0.12740
 28,0.210244,-0.0005641,0.1748586,2.0149337,-0.0057111,-0.0004931,-0.00
 60912,0.114359,-0.1870331,-0.0248747,-0.0062904,-0.0378169,-0.6440691,
 -0.0414661,-0.0503164,-0.5507321,0.0104223,0.1315208,-0.0021732,-0.003
 411,-0.0011185,0.1155826,-0.0347346,-0.0026568,-0.0213045,0.0630999,0.
 1316197,-0.0017048,0.0019451,-0.0003665,0.1158083,0.0345377,0.0011848,
 0.0211333,0.0627762,0.1383263,-0.0121589,-0.0070616,-0.0096641,-0.0044
 21,-0.0678987,-0.0058623,-0.0694008,-0.0215904,0.1385308,-0.0106449,0.
 0036614,-0.0081874,-0.003867,0.0680188,0.0024524,0.0695738,-0.0223492,
 0.2661617,0.1549215,0.0145422,0.1586059,2.3528454,-0.003115,0.0145318,
 -0.0030757,1.651321,-0.2600344,-0.0481541,0.0227834,-0.0483002,-0.9609
 851,0.4046954,0.0235498,0.4078679,-0.9778323,-0.2613532,-0.0570153,-0.
 0379044,-0.0570935,-0.9642605,-0.4036187,-0.0386682,-0.4067932,-0.9732
 378,-0.5336448,-0.4925098,0.0052157,-0.1723327,-1.8000331,0.005198,0.0
 0457,0.0086365,-0.1405284,0.2905141,0.1434433,0.038627,0.0164618,0.200
 9865,0.0495643,0.0324139,0.0887289,0.1366537,0.2889107,0.1413375,-0.04
 2466,0.0152533,0.2004206,-0.0501592,-0.0357424,-0.0920409,0.1388223\Po
 lar=54.9003563,7.0262199,148.3411906,0.474719,-0.1720414,100.4354188\P
 G=C01 [X(C6H6N2O2)]\NImag=0\\0.15148409,0.04325355,0.72790873,0.009329
 74,0.04127626,0.74023188,-0.06670358,-0.00587124,0.00561941,0.14084157
 ,-0.00507647,-0.15185984,0.10911962,0.03263615,0.58079397,0.00101845,0
 .04517742,-0.29534374,0.00666244,0.00002596,0.76736455,0.00896802,0.00
 406021,-0.00258795,-0.06695099,-0.00743927,-0.00589270,0.15135148,0.00
 351633,0.06144558,-0.02594787,-0.00687894,-0.15248382,-0.04561639,0.04
 234608,0.72757273,0.00105317,0.02536964,-0.06176590,-0.01049301,-0.109
 56116,-0.29447273,0.00315112,-0.04214356,0.74070100,-0.00300761,-0.002
 66884,0.00215282,0.00790791,-0.00361862,-0.00493047,-0.06322428,-0.023
 90697,0.00144902,0.13256646,-0.00300283,-0.04907418,0.03442113,-0.0043
 3043,-0.04013732,-0.07988636,-0.02250941,-0.37033120,0.03535099,0.0464
 3010,0.73682197,0.00147983,0.02284770,-0.01827379,-0.00122792,-0.02018
 117,0.03448569,-0.00323168,-0.03599429,-0.13512933,0.01004457,0.041953
 78,0.70728987,0.00154560,-0.00441826,-0.00214694,-0.00659789,0.0033119
 8,-0.00081183,0.00173074,-0.00257002,0.00312657,-0.07281654,-0.0054080
 0,0.00305891,0.17655832,-0.00246169,-0.03553357,-0.03102468,0.00171022
 ,0.01828554,-0.00021969,-0.00176708,-0.03506273,0.03140031,-0.00447169
 ,-0.16011494,0.09665993,0.03394813,0.73395819,-0.00549188,-0.08534920,
 0.04690979,-0.00080849,-0.00023692,-0.08155555,0.00646584,0.08575449,0
 .04625383,-0.00014982,0.02788544,-0.27423234,0.00554762,-0.00043436,0.
 69940389,-0.06321710,-0.02312645,-0.00289916,0.00805265,-0.00316008,0.
 00550771,-0.00309236,-0.00316687,-0.00246466,0.00789031,0.00395239,-0.
 00174385,-0.07297141,-0.00655970,-0.00414629,0.13239616,-0.02324252,-0
 .37032279,-0.03391132,-0.00260444,-0.03973228,0.08025982,-0.00374666,-
 0.04930432,-0.03422335,0.00358774,0.06237708,-0.01745447,-0.00603163,-
 0.16061846,-0.02822055,0.04550031,0.73647954,0.00177908,0.03744770,-0.
 13514490,0.00180527,0.02055298,0.03393594,-0.00178992,-0.02265974,-0.0
 1795890,0.00055601,0.01693368,-0.04669491,-0.00735415,-0.09699951,-0.2
 7357401,0.00212447,-0.04305806,0.70780281,-0.04274548,-0.00802813,-0.0
 1197295,0.00583954,0.00034501,0.00060976,0.00502274,-0.00044063,0.0001
 7915,-0.00121635,0.00000718,0.00010990,0.00850919,-0.00099367,-0.00005
 092,0.00521748,-0.00101098,-0.00186372,0.02882140,-0.00803917,-0.13274
 416,-0.12750697,0.00067867,0.01335522,0.01162528,-0.00045131,-0.001457
 01,0.00361617,0.00002561,-0.00092753,0.00071535,-0.00102807,-0.0047831
 2,0.00078939,-0.00141447,-0.00974880,-0.02611267,0.00957528,0.13775274
 ,-0.01182723,-0.12558512,-0.27608883,-0.00141558,-0.01557579,-0.018746
 64,0.00019146,0.00381843,-0.00336801,0.00006803,0.00071481,0.00044220,
 0.00006501,0.00149270,0.00124778,0.00018239,0.00230789,0.00651918,0.01
 300137,0.13770357,0.28856118,0.00501095,-0.00052370,-0.00035690,0.0058
 4549,0.00067467,-0.00114020,-0.04234170,-0.00529736,0.00696783,0.00525
 426,-0.00105201,0.00189402,0.00850562,-0.00102535,-0.00010081,-0.00121
 940,-0.00000850,-0.00007416,0.00049467,0.00002540,-0.00007653,0.028382
 38,-0.00053007,-0.00148697,-0.00361319,0.00043209,0.01337057,-0.011766
 73,-0.00526760,-0.13172539,0.12706678,-0.00085333,-0.00965245,0.026202
 11,-0.00104514,-0.00479212,-0.00074276,0.00001010,-0.00093328,-0.00071
 018,0.00000802,0.00068740,-0.00082331,0.00658116,0.13664406,-0.0003691
 4,-0.00381564,-0.00332627,0.00088491,0.01543532,-0.01876794,0.00682209
 ,0.12514506,-0.27751116,-0.00015167,-0.00222061,0.00638607,-0.00021663
 ,-0.00144666,0.00126036,-0.00003235,-0.00070924,0.00045100,0.00004794,
 0.00081682,-0.00083315,-0.00743330,-0.13726340,0.29010873,-0.00092304,
 0.00002770,0.00004321,0.00757105,-0.00086704,0.00005751,0.00258280,-0.
 00098801,-0.00203072,-0.03560116,-0.00862938,-0.01244096,0.00432086,0.
 00009838,0.00094152,0.00530923,-0.00045196,0.00013455,-0.00054659,0.00
 004599,-0.00000051,-0.00492644,0.00043818,0.00007968,0.02482133,0.0000
 0177,-0.00093366,0.00070896,-0.00090166,-0.00461312,0.00172933,-0.0014
 8259,-0.01239233,-0.02935162,-0.00834784,-0.12730166,-0.11885491,0.000
 58747,0.00995895,0.01431063,-0.00049809,-0.00101926,0.00307774,0.00005
 164,0.00000713,-0.00007418,0.00047122,0.00122946,0.00029308,0.00973427
 ,0.13328515,0.00009632,0.00124390,-0.00009784,-0.00004568,0.00068841,0
 .00204955,0.00011288,0.00136914,0.00429574,-0.01217897,-0.11873148,-0.
 27144473,-0.00157620,-0.01736000,-0.01930133,0.00021052,0.00370582,-0.
 00315833,-0.00000197,-0.00004948,-0.00000155,0.00007510,-0.00028599,0.
 00074065,0.01340898,0.12920815,0.28590652,0.00262485,-0.00100820,0.002
 06939,0.00756832,-0.00088181,-0.00017244,-0.00092565,0.00000089,-0.000
 02537,0.00529795,-0.00053245,-0.00031392,0.00432356,0.00046513,-0.0014
 5031,-0.03518075,-0.00604334,0.00738428,-0.00492719,0.00044410,0.00004
 029,-0.00054628,0.00004707,0.00001202,-0.00020215,0.00006588,-0.000062
 73,0.02436528,-0.00085146,-0.01227914,0.02944342,-0.00093831,-0.004622
 68,-0.00168266,-0.00001377,-0.00094152,-0.00070543,-0.00056537,-0.0010
 4660,-0.00307481,0.00028402,0.00997070,-0.01443803,-0.00576030,-0.1263
 4547,0.11842045,0.00046471,0.00122939,-0.00030510,0.00005325,0.0000076
 3,0.00007302,0.00005056,0.00053993,-0.00072720,0.00692052,0.13224505,-
 0.00007349,-0.00128095,0.00414050,-0.00006907,-0.00064272,0.00206184,-
 0.00007842,-0.00124080,-0.00008736,-0.00038975,-0.00370375,-0.00311973
 ,0.00106676,0.01723592,-0.01931583,0.00712116,0.11830304,-0.27282121,0
 .00004477,0.00027455,0.00074148,0.00001346,0.00004844,-0.00000235,0.00
 004548,0.00071976,-0.00099398,-0.00781235,-0.12876639,0.28740260,-0.00
 384691,-0.00261636,0.00183143,-0.08432695,-0.00369163,-0.00032781,-0.0
 0392256,-0.00317024,-0.00141332,0.00782877,0.00044287,-0.00086838,-0.0
 0137336,-0.00122558,-0.00004386,0.00785194,0.00057226,0.00054655,-0.00
 433957,0.00040887,-0.00021065,-0.00433595,0.00039561,0.00022903,0.0012
 5838,-0.00007985,0.00000790,0.00126057,-0.00004189,-0.00002987,0.25470
 896,-0.00263053,-0.04228157,0.02187303,-0.00363058,-0.13302935,0.00007
 428,-0.00310462,-0.04247203,-0.02157989,0.00015531,0.01409908,-0.00947
 498,-0.00235622,-0.01752811,0.00004916,0.00035931,0.01416091,0.0093840
 5,0.00039158,0.00102331,-0.00302495,0.00045595,0.00103280,0.00299794,-
 0.00005145,0.00038915,0.00043554,-0.00006030,0.00039454,-0.00043501,0.
 03244961,0.68650871,0.00210838,0.02561040,0.01491185,-0.00032790,0.000
 07496,-0.11552770,-0.00169017,-0.02531667,0.01517791,-0.00053162,-0.00
 594689,-0.00700325,-0.00004168,0.00003704,-0.00569465,0.00021084,0.005
 85056,-0.00708824,0.00006041,0.00064837,-0.00340479,-0.00004223,-0.000
 67492,-0.00341791,-0.00013196,-0.00177096,0.00022941,0.00010997,0.0017
 7159,0.00022183,0.00768873,0.00023996,0.97764520,0.00364956,-0.0004906
 2,-0.00059043,0.02091370,-0.00420380,0.00356198,0.00118230,-0.00028609
 ,0.00012573,-0.00059793,-0.00005122,0.00018908,0.00022932,0.00026311,0
 .00014565,-0.00115136,-0.00024595,0.00003601,0.00042230,-0.00001180,0.
 00001222,-0.00011732,-0.00030982,0.00009974,-0.00003778,-0.00001192,-0
 .00001074,-0.00057662,-0.00002551,0.00000263,-0.08482665,-0.01035618,0
 .00992633,0.03196228,-0.00058191,-0.00295644,-0.00776310,-0.00405334,-
 0.04058581,0.05233484,-0.00013956,-0.00122302,0.00297233,-0.00002180,-
 0.00177389,0.00242546,0.00062678,0.00455085,0.00193583,-0.00019290,-0.
 00466986,0.00000823,0.00000257,0.00049628,0.00005406,-0.00030128,-0.00
 425189,0.00085611,-0.00001694,-0.00018986,-0.00017006,-0.00002075,-0.0
 0093894,0.00002332,-0.01035295,-0.24824489,0.18260445,0.01423068,0.253
 18433,-0.00002905,-0.00028044,0.00292421,0.00246933,0.03779828,-0.0119
 5598,-0.00090021,-0.01073218,-0.00838017,0.00024952,0.00416260,0.00022
 248,-0.00055991,-0.00424197,0.00032042,0.00017212,0.00221619,0.0023294
 2,-0.00009521,-0.00148288,0.00131155,0.00003049,-0.00021350,0.00339880
 ,0.00002323,0.00024205,0.00000952,0.00001699,0.00024551,-0.00002704,0.
 00983601,0.18072801,-0.43413500,-0.01089255,-0.22302006,0.57696528,0.0
 0119451,-0.00005700,-0.00033093,0.02076966,-0.00502797,-0.00424139,0.0
 0366257,-0.00048171,0.00057611,-0.00115420,-0.00029318,0.00004003,0.00
 023822,0.00035331,-0.00014527,-0.00060696,-0.00014112,-0.00017053,-0.0
 0011847,-0.00030504,-0.00002295,0.00042449,0.00002002,0.00000671,-0.00
 057679,-0.00003071,0.00000930,-0.00003802,-0.00001706,0.00001182,-0.08
 540977,-0.01429246,-0.01734119,0.02898146,0.00153050,-0.00089388,0.032
 67838,-0.00020023,-0.00119169,-0.00299774,-0.00518495,-0.04094859,-0.0
 5211839,-0.00041461,-0.00292389,0.00779736,-0.00019336,-0.00467869,0.0
 0002419,0.00058711,0.00456006,-0.00196598,-0.00007480,-0.00180044,-0.0
 0241624,-0.00031916,-0.00425425,-0.00081856,0.00000192,0.00050206,-0.0
 0005084,-0.00002127,-0.00094000,-0.00001918,-0.00001336,-0.00019015,0.
 00017119,-0.01432924,-0.24971383,-0.18308335,0.00177726,0.05091485,0.0
 1127196,0.01909117,0.25498865,0.00069486,0.01070676,-0.00842354,-0.003
 14878,-0.03758186,-0.01144898,0.00001489,0.00031445,0.00287860,-0.0000
 9651,-0.00218212,0.00234110,0.00055915,0.00421822,0.00030233,-0.000231
 23,-0.00415235,0.00025803,0.00004631,0.00025095,0.00340237,0.00011430,
 0.00148605,0.00130359,-0.00000509,-0.00024122,-0.00002581,-0.00002215,
 -0.00024093,0.00001006,-0.01725072,-0.18120721,-0.43208289,-0.00259499
 ,-0.01205155,-0.13335991,0.02248105,0.22396152,0.57444443,0.00509041,0
 .00348975,-0.00011773,-0.00115378,-0.00585330,0.00010663,0.00509388,0.
 00335297,-0.00022617,0.00924574,-0.00631300,0.00546421,-0.04302611,0.0
 0309712,-0.00095080,0.00902220,-0.00740091,-0.00559299,-0.00020917,0.0
 0011395,-0.00001535,-0.00020735,0.00014067,0.00002356,-0.00293619,0.00
 018930,0.00019952,-0.00292744,0.00017763,-0.00009439,-0.00022287,0.005
 25631,-0.00000691,-0.00005204,-0.00139526,0.00114322,-0.00007574,-0.00
 139411,-0.00112560,0.05879514,0.00062737,0.01172219,-0.00233814,-0.001
 18726,-0.01872523,0.00006600,0.00067730,0.01170575,0.00223542,-0.00476
 113,-0.04555867,0.01886404,-0.03247117,-0.33202559,0.00075421,-0.00518
 280,-0.04583448,-0.01856555,-0.00008562,-0.00028322,0.00003562,-0.0000
 8607,-0.00027835,-0.00003185,0.00019759,0.00204355,-0.00092556,0.00021
 965,0.00204520,0.00092089,0.00121648,0.01648993,-0.00004608,-0.0002970
 9,-0.00461520,0.00352124,-0.00037224,-0.00462828,-0.00349341,-0.076640
 79,0.73280524,-0.00038284,0.00627587,-0.01028016,0.00009721,0.00011610
 ,0.00767419,0.00005012,-0.00643805,-0.01026724,0.00481027,0.04977814,0
 .00160223,-0.00087905,0.00037234,-0.13096984,-0.00494664,-0.04943915,0
 .00210133,-0.00006046,-0.00124077,0.00020124,0.00006953,0.00123996,0.0
 0019456,-0.00050193,0.00051353,0.00200148,0.00060695,-0.00051769,0.001
 99108,0.00000124,-0.00008946,0.00012083,-0.00002371,-0.00024077,0.0004
 7574,0.00003705,0.00029137,0.00051253,0.00854516,0.00103998,0.84000572
 ,0.00169093,-0.00159992,-0.00007671,0.00020833,0.00144281,-0.00042990,
 -0.00083039,-0.00044754,-0.00002831,-0.00133258,0.00133661,-0.00098800
 ,-0.00466884,-0.01075840,-0.00653972,0.00300539,0.00000258,0.00143974,
 -0.00032383,-0.00007372,0.00001324,0.00010024,0.00000729,0.00000300,0.
 00054866,0.00019371,-0.00018363,-0.00065917,0.00006027,0.00008045,-0.0
 0015181,-0.00130924,-0.00003793,0.00001171,0.00036284,-0.00028055,0.00
 001310,0.00033228,0.00029398,-0.01660812,0.05753963,0.08224375,0.02117
 025,-0.00036272,0.00006707,-0.00180441,0.00006656,0.00047048,0.0004001
 6,-0.00042345,-0.00048450,-0.00005664,-0.00052616,0.00243063,-0.001731
 18,0.00762955,-0.01548603,-0.03358861,-0.00019764,-0.00511150,0.002959
 47,-0.00000541,-0.00036525,0.00009121,0.00003800,0.00001218,0.00001041
 ,0.00033284,-0.00017732,0.00145985,0.00009740,0.00011372,-0.00015963,0
 .00001095,-0.00041742,-0.00001775,0.00001131,0.00011664,-0.00000288,0.
 00001216,0.00018916,0.00021210,0.04001566,-0.16307223,-0.15943856,-0.0
 4181976,0.16873581,-0.00006463,-0.00080854,0.00029049,0.00011568,0.001
 62072,0.00012297,-0.00067311,-0.00115559,-0.00064365,-0.00019355,0.003
 50216,0.00133333,-0.00077890,-0.00260289,0.00462659,0.00068259,0.00205
 975,0.00172881,-0.00001451,0.00002529,0.00001778,0.00003752,0.00007278
 ,-0.00000305,0.00043653,-0.00038993,-0.00048503,0.00007922,0.00011979,
 0.00027288,0.00006409,-0.00150283,0.00002659,-0.00000087,0.00039603,-0
 .00038171,-0.00000821,0.00035845,0.00027403,0.06029497,-0.15994858,-0.
 35365133,-0.06759288,0.17496616,0.36358634,-0.00081522,-0.00042249,0.0
 0003371,0.00021497,0.00140936,0.00042225,0.00169341,-0.00158190,0.0000
 5287,0.00295924,-0.00004723,-0.00146585,-0.00450728,-0.01067225,0.0067
 7756,-0.00130602,0.00126512,0.00103953,0.00009932,0.00000571,-0.000005
 22,-0.00032365,-0.00007426,-0.00000561,-0.00066217,0.00005740,-0.00006
 060,0.00054274,0.00020272,0.00016080,-0.00015223,-0.00127646,0.0000469
 2,0.00000707,0.00032333,-0.00028954,0.00001756,0.00035534,0.00027055,-
 0.01982855,0.06060616,-0.08966664,-0.00217387,-0.00487930,0.00761608,0
 .02423468,-0.00041941,-0.00047957,0.00006500,0.00005746,0.00046225,-0.
 00040288,-0.00032367,0.00007770,0.00181264,-0.00026367,-0.00513163,-0.
 00292675,0.00835347,-0.01533963,0.03349725,-0.00048800,0.00242341,0.00
 173765,0.00003761,0.00001184,-0.00001128,-0.00000728,-0.00036571,-0.00
 008952,0.00010054,0.00011388,0.00015815,0.00029958,-0.00018166,-0.0014
 6786,0.00001109,-0.00041122,0.00001928,0.00000765,0.00018685,-0.000211
 94,0.00001133,0.00011502,0.00000062,0.04316401,-0.16179061,0.15777716,
 -0.00526947,0.01297857,-0.01671279,-0.04527126,0.16733051,0.00067845,0
 .00116424,-0.00066376,-0.00011782,-0.00165273,0.00012454,0.00003576,0.
 00084356,0.00027739,-0.00070787,-0.00203151,0.00179508,0.00094127,0.00
 291330,0.00431856,0.00025238,-0.00353459,0.00131397,-0.00003986,-0.000
 07298,-0.00000179,0.00002188,-0.00002216,0.00001805,-0.00005953,-0.000
 12041,0.00027572,-0.00045984,0.00038445,-0.00047476,-0.00006036,0.0015
 3236,0.00002081,0.00001392,-0.00036513,0.00028238,-0.00000773,-0.00040
 576,-0.00038594,-0.06764733,0.15791175,-0.35171237,-0.00791653,0.01670
 032,-0.01711503,0.07507322,-0.17324471,0.36192715\\0.00000019,0.000000
 39,0.,-0.00000025,-0.00000090,-0.00000014,0.00000018,0.00000045,0.0000
 0013,-0.00000015,-0.00000037,0.00000014,0.00000044,0.00000052,-0.00000
 008,-0.00000013,-0.00000063,-0.00000013,-0.00000006,-0.00000007,-0.000
 00002,-0.00000003,0.00000006,-0.00000005,-0.00000011,0.00000004,-0.000
 00001,-0.00000006,-0.00000002,0.00000002,0.00000011,0.00000081,0.00000
 001,0.00000002,-0.00000030,0.00000004,-0.00000009,-0.00000003,-0.00000
 004,-0.00000007,-0.00000025,0.00000005,0.,0.00000014,0.00000001,0.0000
 0002,0.00000017,0.00000007\\\@


 WAR ES EIN GOTT DER DIESE ZEICHEN SCHRIEB?
          - LUDWIG BOLTZMANN, QUOTING GOETHE, ABOUT MAXWELL'S EQUATIONS.
 Job cpu time:  0 days  9 hours 10 minutes 17.4 seconds.
 File lengths (MBytes):  RWF=    230 Int=      0 D2E=      0 Chk=     12 Scr=      1
 Normal termination of Gaussian 09 at Sun Oct 23 09:06:17 2022.
