 hostname is         dlt19.abaxnet
 this is node-proc. number 0 running on node dlt19.abaxnet
 the total number of node-proc. spawned is   1

 ricc2 (dlt19.abaxnet) : TURBOMOLE V6.6( 19125 ) 27 May 2014 at 14:24:19
 Copyright (C) 2014 TURBOMOLE GmbH, Karlsruhe


    2023-02-14 15:31:54.567 



                              R I C C 2 - PROGRAM

                          the quantum chemistry groups
                             at the universities in
                           Karlsruhe, Bochum & Mainz
                                   Germany



   *-----------------------------------------------------------------------*
   |                     program will use  1 thread(s)                     |
   *-----------------------------------------------------------------------*


              +--------------------------------------------------+
              | Atomic coordinate, charge and isotop information |
              +--------------------------------------------------+

                    atomic coordinates            atom    charge  isotop
         -0.06562824   -2.56033056   -0.02661400    c      6.000     0
         -2.29911073   -1.20731006   -0.02466919    c      6.000     0
         -2.29865635    1.40905625   -0.02271139    c      6.000     0
         -0.03497834    2.67525855   -0.02520666    c      6.000     0
          2.27599020    1.37791181   -0.03022128    c      6.000     0
          2.18964213   -1.27217372   -0.02930406    c      6.000     0
         -0.11907792   -4.59843162   -0.02355865    h      1.000     0
         -4.07334455    2.41381884   -0.01935513    h      1.000     0
         -0.01350608    4.72041415   -0.03001403    h      1.000     0
         -4.69030585   -2.56928472   -0.02074546    n      7.000     0
         -6.62409758   -1.33110653   -0.01528916    o      8.000     0
         -4.61971948   -4.86416101   -0.02285602    o      8.000     0
          4.49603799    2.66478492   -0.08477446    n      7.000     0
          4.49474732    4.53666708    0.21427750    h      1.000     0
          6.12849219    1.73402707    0.18242223    h      1.000     0
          5.25351528   -3.12914046   -0.02138023    br    35.000     0
 
       center of nuclear mass  :    1.10981438   -1.53841506   -0.02477513
       center of nuclear charge:    0.92059893   -1.38747723   -0.02283676

              +--------------------------------------------------+
              |               basis set information              |
              +--------------------------------------------------+

              we will work with the 1s 3p 5d 7f 9g ... basis set
              ...i.e. with spherical basis functions...

   type   atoms  prim   cont   basis
   ---------------------------------------------------------------------------
    c        6     52     37   def2-TZVPD   [6s3p3d1f|12s6p3d1f]
    h        5     11      9   def2-TZVPD   [3s2p|5s2p]
    n        2     52     37   def2-TZVPD   [6s3p3d1f|12s6p3d1f]
    o        2     55     40   def2-TZVPD   [6s4p3d1f|12s7p3d1f]
    br       1    112     57   def2-TZVPD   [7s6p5d1f|18s14p9d1f]
   ---------------------------------------------------------------------------
   total:   16    693    478
   ---------------------------------------------------------------------------

   total number of primitive shells          :  116
   total number of contracted shells         :  176
   total number of cartesian basis functions :  546
   total number of SCF-basis functions       :  478



   =========================================================================


     restricted closed shell calculation for the wavefunction models:
               ADC(2)     - Algebraic Diagrammatic Construction to 2. Order (strict)


     global parameters for ricc2 program:

        hard restart (reuse of interm.) :  disabled
        soft restart (reuse of vectors) :  disabled
        threshold for vector function   :    0.100000E-06
        convergence threshold energy    :    0.100000E-07
        linear dependence threshold     :    0.100000E-13
        global print level              :      1
        maximum number of iterations    :   500
        maximum number DIIS vectors     :    10
        max. dim. of reduced space      :   100
        core memory limit (MB)          :   500
        disk space limit (MB)           :   none


   =========================================================================
     "cartesian on" in $drvopt is ignored by $ricc2

    der. integral neglect threshold  :  0.10E-08
    integral neglect threshold       :  0.61E-12
    integral storage threshold THIZE :  0.10E-04
    integral storage threshold THIME :         5


                  +------------------------------------------+
                  |     Auxiliary basis set information      |
                  +------------------------------------------+

              we will work with the 1s 3p 5d 7f 9g ... basis set
              ...i.e. with spherical basis functions...

   type   atoms  prim   cont   basis
   ---------------------------------------------------------------------------
    c        6     97     92   def2-TZVPD   [9s7p5d4f1g|9s7p6d4f1g]
    h        5     32     24   def2-TZVPD   [5s3p2d|5s4p3d]
    n        2     97     92   def2-TZVPD   [9s7p5d4f1g|9s7p6d4f1g]
    o        2     97     92   def2-TZVPD   [9s7p5d4f1g|9s7p6d4f1g]
    br       1    182    175   def2-TZVPD   [11s10p9d6f4g1h|11s10p9d7f4g1h]
   ---------------------------------------------------------------------------
   total:   16   1312   1215
   ---------------------------------------------------------------------------

   total number of primitive shells          :  135
   total number of contracted shells         :  351
   total number of cartesian basis functions : 1516
   total number of SCF-basis functions       : 1215


 symmetry group of the molecule :   c1 

 the group has the following generators :
   c1(z)

    1 symmetry operations found

 there are 1 real representations :   a   

 maximum number of shells which are related by symmetry :  1


 The symmetry information takes   1 MB

*---------------------------------------------------------------------*
|               simplified C1 algorithm will be applied               |
*---------------------------------------------------------------------*
  MOs are in ASCII format !


 reading orbital data $scfmo  from file mos . 

 orbital characterization : scfconv=7
 

         --------------------------------------------------------------
                   checking mo's by calculating trace(D*S)

              number of electrons : 
                 from trace(D*S)         :  106.000000000004
                 from occupation numbers :  106.000000000000

              molecular charge           :    0.000000000000
         --------------------------------------------------------------

 time elapsed for calculating density matrices :   0.033 sec
 all orbitals will be active in the correlation treatment


   Molecular Orbital Statistic:
   ============================

   -----------------------------
   orbitals in total:
   -----------------------------
    frozen occupied :      0
    active occupied :     53
    active virtual  :    425
    frozen virtual  :      0
    all together    :    478
   -----------------------------


     time in riccmos       cpu:  0.18 sec    wall:  2.57 sec    ratio:  0.1

     total memory allocated for calculation of (Q|P)**(-1/2) : 17 MiB


     calculation of (P|Q) ...
     time in lp2sym        cpu:  0.02 sec    wall:  0.02 sec    ratio:  1.0


     calculation of the Cholesky decomposition of (P|Q)**(-1) ...
     time in invmetri      cpu:  0.09 sec    wall:  1.29 sec    ratio:  0.1

   threshold for RMS(d[D]) in SCF was     :  0.10E-07
   integral neglect threshold             :  0.61E-12
   derivative integral neglect threshold  :  0.10E-08


 setting up bound for integral derivative estimation

 increment for numerical differentiation : 0.00050000

   =========================================================================

     Energy of reference wave function is -3061.2312123729998
     Maximum orbital residual is           0.4276163323365E-04


     Number of symmetry-nonredundant auxiliary basis functions:     1215

     Block lengths for integral files:
        frozen occupied (BOI):        0 MiB
        active occupied (BJI):        1 MiB
        active virtual  (BAI):        4 MiB
        frozen virtual  (BGI):        0 MiB
               general  (BTI):        5 MiB

   =========================================================================




   **************************************************************************
   *                                                                        *
   *          OPTIMIZATION OF THE GROUND STATE CLUSTER AMPLITUDES           *
   *                                                                        *
   **************************************************************************


   Iter.   MP2 energy       Norm(Omega)    Norm(t1)  Norm(t2)     cpu    wall
   ...........................................................................
    1  -3063.5944507105    0.1896382923     0.00000   0.47884    0.73    3.49
   ...........................................................................


     time in total         cpu:  0 min 44 s  wall:  3 min 29 s  ratio:  0.2


     **********************************************************************
     *                                                                    *
     *   RHF  energy                             :  -3061.2312123730      *
     *   MP2 correlation energy                  :     -2.3632383375      *
     *                                                                    *
     *   Final MP2 energy                        :  -3063.5944507105      *
     *                                                                    *
     *   Norm of MP1 T2 amplitudes               :      0.4788369798      *
     *                                                                    *
     *   D1 diagnostic                           :      0.0574            *
     *                                                                    *
     **********************************************************************



 **************************************************************
 *                                                            *
 *    OPTIMIZATION OF THE EXCITED STATE CLUSTER AMPLITUDES    *
 *                                                            *
 **************************************************************


  preoptimize excitation energies/vectors using CCS:

  ==================================================


 ======== LINEAR CC RESPONSE SOLVER ========

    threshold for convergence: 0.10E-02
    maximum number of simultaneous jacoby matrix transformations: 15
                                                
     summary of start vectors generation:
     -------------------------------------------
     type of solution vectors      : RE0
     symmetry                      : a  
     number of vectors requested   :    15
     number of vectors generated   :    15
       -- guessed as rhs/(e_a-e_i) :    15
     -------------------------------------------
                                                

    Iter  #Vectors  time (min)    max. residual 
    --------------------------------------------
      1      15        10.07     0.14E+00  (  2)
      2      15        10.94     0.64E-01  (  8)
      3      15         8.82     0.51E-01  (  8)
      4      15         9.78     0.27E-01  (  5)
      5      15        10.30     0.17E+00  (  5)
  dimension of red. space became too large.
  try internal restart...
      6      15         9.18     0.15E+00  (  6)
                                                
     summary of start vectors generation:
     -------------------------------------------
     type of solution vectors      : RE0
     symmetry                      : a  
     number of vectors requested   :    15
     number of vectors generated   :    15
       -- restarted from file      :    15
     -------------------------------------------
                                                

    Iter  #Vectors  time (min)    max. residual 
    --------------------------------------------
      7      15         9.74     0.15E+00  (  6)
      8      12         7.98     0.82E-01  (  2)
      9      11         7.60     0.25E-01  (  1)
     10       8         4.84     0.29E-01  ( 15)
     11       7         4.35     0.44E-01  ( 13)
     12       5         3.58     0.16E-01  ( 13)
     13       4         2.35     0.69E-02  ( 13)
     14       2         1.28     0.29E-02  ( 13)
     15       2         1.50     0.16E-02  ( 13)
     16       1         0.76     0.84E-03  ( 13)
    --------------------------------------------
    converged in 16 iterations

         Total time        103.13 minutes


 ===========================================




 Note that this is the intermediate result of a preoptimization!
 The convergence threshold was  0.1E-02 only!


 +==================================================================+
 | sym | multi | state |          CCS excitation energies           |
 |     |       |       +--------------------------------------------+
 |     |       |       |   Hartree    |     eV       |     cm-1     |
 +==================================================================+
 | a   |   1   |   1   |    0.1940108 |      5.27930 |    42580.457 |
 | a   |   1   |   2   |    0.1981144 |      5.39097 |    43481.080 |
 | a   |   1   |   3   |    0.2054913 |      5.59170 |    45100.134 |
 | a   |   1   |   4   |    0.2060249 |      5.60622 |    45217.230 |
 | a   |   1   |   5   |    0.2268720 |      6.17350 |    49792.648 |
 | a   |   1   |   6   |    0.2338501 |      6.36338 |    51324.165 |
 | a   |   1   |   7   |    0.2530900 |      6.88693 |    55546.831 |
 | a   |   1   |   8   |    0.2599520 |      7.07365 |    57052.876 |
 | a   |   1   |   9   |    0.2613538 |      7.11180 |    57360.538 |
 | a   |   1   |  10   |    0.2642640 |      7.19099 |    57999.252 |
 | a   |   1   |  11   |    0.2726585 |      7.41941 |    59841.620 |
 | a   |   1   |  12   |    0.2811186 |      7.64963 |    61698.396 |
 | a   |   1   |  13   |    0.2815171 |      7.66047 |    61785.871 |
 | a   |   1   |  14   |    0.2863363 |      7.79161 |    62843.559 |
 | a   |   1   |  15   |    0.2866391 |      7.79985 |    62910.006 |
 +==================================================================+




  preoptimize ADC(2) excitation energies/vectors using a quasi linear algorithm:
  ==============================================================================


 ======== LINEAR CC RESPONSE SOLVER ========

    threshold for convergence: 0.10E-02
    maximum number of simultaneous jacoby matrix transformations: 15
                                                
     summary of start vectors generation:
     -------------------------------------------
     type of solution vectors      : RE0
     symmetry                      : a  
     number of vectors requested   :    15
     number of vectors generated   :    15
       -- restarted from file      :    15
     -------------------------------------------
                                                

    Iter  #Vectors  time (min)    max. residual 
    --------------------------------------------
 threshold for this macro iteration:  4.859733816743053E-002
      1      15        74.89     0.94E-01  (  1)
 ...adapted threshold to:  6.012218790574536E-002
      2       8        34.74     0.46E-01  (  6)
                                                
     summary of start vectors generation:
     -------------------------------------------
     type of solution vectors      : RE0
     symmetry                      : a  
     number of vectors requested   :    15
     number of vectors generated   :    15
       -- restarted from file      :    15
     -------------------------------------------
                                                

    Iter  #Vectors  time (min)    max. residual 
    --------------------------------------------
 threshold for this macro iteration:  6.807049310677604E-003
      3      15        61.06     0.47E-01  (  6)
      4      15        66.60     0.34E-01  ( 14)
 ...adapted threshold to:  7.902602333275499E-003
      5      15        61.16     0.56E-01  ( 12)
 ...adapted threshold to:  1.231552205894385E-002
      6       7        30.87     0.33E-01  ( 12)
 ...adapted threshold to:  1.351567394608785E-002
      7       4        16.51     0.17E-01  ( 15)
 ...adapted threshold to:  1.356563598016541E-002
      8       2         8.55     0.11E-01  ( 12)
                                                
     summary of start vectors generation:
     -------------------------------------------
     type of solution vectors      : RE0
     symmetry                      : a  
     number of vectors requested   :    15
     number of vectors generated   :    15
       -- restarted from file      :    15
     -------------------------------------------
                                                

    Iter  #Vectors  time (min)    max. residual 
    --------------------------------------------
 threshold for this macro iteration:  1.788806207576127E-003
      9      15        65.16     0.11E-01  ( 12)
     10       5        21.38     0.46E-02  ( 15)
     11       2         6.30     0.57E-02  ( 15)
     12       3         9.61     0.43E-02  ( 15)
     13       1         2.88     0.44E-02  ( 15)
     14       1         3.03     0.63E-02  ( 15)
     15       1         3.46     0.79E-02  ( 15)
     16       1         3.59     0.27E-01  ( 15)
 ...adapted threshold to:  4.964087875737710E-003
     17       1         3.40     0.79E-01  ( 14)
 ...adapted threshold to:  8.667322430364999E-003
     18       1         3.01     0.56E-01  ( 13)
 ...adapted threshold to:  8.684628341939477E-003
     19       2         8.36     0.33E-01  ( 13)
 ...adapted threshold to:  8.685234391714869E-003
     20       1         3.08     0.33E-01  ( 12)
 ...adapted threshold to:  8.686061047031124E-003
     21       1         3.38     0.29E-01  ( 11)
 ...adapted threshold to:  8.686741449761254E-003
     22       1         3.19     0.16E-01  ( 11)
 ...adapted threshold to:  8.687146186074635E-003
     23       1         3.67     0.10E-01  ( 11)
 ...adapted threshold to:  8.687371416758294E-003
     24       1         3.12     0.15E-01  ( 15)
 ...adapted threshold to:  8.687536782289951E-003
     25       1         3.09     0.99E-02  ( 15)
 ...adapted threshold to:  8.687570389906446E-003
     26       1         3.38     0.87E-02  ( 15)
 ...adapted threshold to:  8.687570859499616E-003
     27       1         3.62     0.77E-02  ( 15)
                                                
     summary of start vectors generation:
     -------------------------------------------
     type of solution vectors      : RE0
     symmetry                      : a  
     number of vectors requested   :    15
     number of vectors generated   :    15
       -- restarted from file      :    15
     -------------------------------------------
                                                

    Iter  #Vectors  time (min)    max. residual 
    --------------------------------------------
 threshold for this macro iteration:  4.098607156069078E-003
     28      15        68.40     0.45E-02  ( 15)
     29       1         3.01     0.20E-01  ( 15)
     30       1         3.11     0.20E-01  ( 15)
     31       1         3.21     0.15E-01  ( 15)
     32       1         3.24     0.97E-02  ( 15)
     33       1         3.13     0.69E-02  ( 15)
     34       1         3.66     0.72E-02  ( 15)
     35       1         3.05     0.41E-02  ( 15)
     36       1         3.93     0.24E-02  ( 15)
                                                
     summary of start vectors generation:
     -------------------------------------------
     type of solution vectors      : RE0
     symmetry                      : a  
     number of vectors requested   :    15
     number of vectors generated   :    15
       -- restarted from file      :    15
     -------------------------------------------
                                                

    Iter  #Vectors  time (min)    max. residual 
    --------------------------------------------
 threshold for this macro iteration:  1.000000000000000E-003
     37      15        66.33     0.12E-02  ( 11)
     38       1         3.27     0.15E-02  ( 11)
     39       1         3.37     0.93E-03  ( 15)
    --------------------------------------------
    converged in 39 iterations

         Total time        679.01 minutes


 ===========================================




 Note that this is the intermediate result of a preoptimization!
 The convergence threshold was  0.1E-02 only!


 +==================================================================+
 | sym | multi | state |          ADC(2) excitation energies        |
 |     |       |       +--------------------------------------------+
 |     |       |       |   Hartree    |     eV       |     cm-1     |
 +==================================================================+
 | a   |   1   |   1   |    0.1386583 |      3.77308 |    30431.978 |
 | a   |   1   |   2   |    0.1587596 |      4.32007 |    34843.696 |
 | a   |   1   |   3   |    0.1630205 |      4.43601 |    35778.864 |
 | a   |   1   |   4   |    0.1686612 |      4.58950 |    37016.853 |
 | a   |   1   |   5   |    0.2015315 |      5.48395 |    44231.044 |
 | a   |   1   |   6   |    0.2023827 |      5.50711 |    44417.875 |
 | a   |   1   |   7   |    0.2094450 |      5.69929 |    45967.865 |
 | a   |   1   |   8   |    0.2202298 |      5.99276 |    48334.844 |
 | a   |   1   |   9   |    0.2295063 |      6.24518 |    50370.813 |
 | a   |   1   |  10   |    0.2344645 |      6.38010 |    51459.020 |
 | a   |   1   |  11   |    0.2376946 |      6.46800 |    52167.939 |
 | a   |   1   |  12   |    0.2380122 |      6.47664 |    52237.645 |
 | a   |   1   |  13   |    0.2405452 |      6.54557 |    52793.580 |
 | a   |   1   |  14   |    0.2453407 |      6.67606 |    53846.052 |
 | a   |   1   |  15   |    0.2515871 |      6.84603 |    55216.996 |
 +==================================================================+





  solve for ADC(2) excitation energies/vectors using a DIIS algorithm:
  =================================================================
                                                
     summary of start vectors generation:
     -------------------------------------------
     type of solution vectors      : RE0
     symmetry                      : a  
     number of vectors requested   :    15
     number of vectors generated   :    15
       -- restarted from file      :    15
     -------------------------------------------
                                                


 ========= DIIS CC RESPONSE SOLVER =========

    threshold for convergence:0.10E-05
    max. nb. of DIIS vectors :      10
    maximum number of simultaneous jacoby matrix transformations: 15

    Iter  #Vectors  time (min)   residual
    --------------------------------------
      1      15        70.13     0.76E-03  ( 15)    0.13E+00
      2      15        65.02     0.67E-03  ( 15)    0.66E-02
      3      15        67.87     0.54E-03  ( 15)    0.15E-01
      4      15        69.38     0.42E-03  ( 15)    0.29E-01
      5      15        58.99     0.35E-03  ( 15)    0.41E-02
      6      13        51.85     0.29E-03  ( 15)    0.84E-02
      7       9        38.48     0.23E-03  ( 15)    0.39E-02
      8       9        39.20     0.18E-03  ( 15)    0.72E-02
      9       8        30.90     0.14E-03  ( 15)    0.27E-02
     10       6        22.88     0.11E-03  ( 15)    0.44E-02
     11       5        21.73     0.83E-04  ( 15)    0.30E-02
     12       5        20.62     0.64E-04  ( 15)    0.31E-02
     13       4        14.92     0.50E-04  ( 15)    0.31E-02
     14       4        16.23     0.39E-04  ( 15)    0.31E-02
     15       2         6.00     0.27E-04  ( 15)    0.31E-02
     16       2         6.17     0.17E-04  ( 15)    0.31E-02
     17       2         6.00     0.10E-04  ( 15)    0.31E-02
     18       1         2.94     0.72E-05  ( 15)    0.31E-02
     19       1         2.99     0.52E-05  ( 15)    0.31E-02
     20       1         2.99     0.42E-05  ( 15)    0.31E-02
     21       1         2.92     0.36E-05  ( 15)    0.31E-02
     22       1         3.08     0.31E-05  ( 15)    0.31E-02
     23       1         2.93     0.29E-05  ( 15)    0.31E-02
     24       1         2.94     0.27E-05  ( 15)    0.31E-02
     25       1         2.94     0.25E-05  ( 15)    0.31E-02
     26       1         3.11     0.24E-05  ( 15)    0.31E-02
     27       1         2.90     0.22E-05  ( 15)    0.31E-02
     28       1         2.91     0.19E-05  ( 15)    0.31E-02
     29       1         3.02     0.16E-05  ( 15)    0.31E-02
     30       1         3.09     0.11E-05  ( 15)    0.31E-02
     31       1         3.35     0.85E-06  ( 15)    0.31E-02
    --------------------------------------
    converged in  31 iterations

   Total time        648.47 minutes


 ===========================================





 +================================================================================+
 | sym | multi | state |          ADC(2) excitation energies    |  %t1   |  %t2   |
 |     |       |       +----------------------------------------+--------+--------+
 |     |       |       |   Hartree    |    eV      |    cm-1    |    %   |    %   |
 +================================================================================+
 | a   |   1   |   1   |    0.1386595 |    3.77312 |  30432.253 |  89.69 |  10.31 |
 | a   |   1   |   2   |    0.1587625 |    4.32015 |  34844.342 |  88.22 |  11.78 |
 | a   |   1   |   3   |    0.1630218 |    4.43605 |  35779.160 |  90.08 |   9.92 |
 | a   |   1   |   4   |    0.1686622 |    4.58953 |  37017.071 |  89.35 |  10.65 |
 | a   |   1   |   5   |    0.2015325 |    5.48398 |  44231.273 |  88.38 |  11.62 |
 | a   |   1   |   6   |    0.2023772 |    5.50696 |  44416.653 |  91.29 |   8.71 |
 | a   |   1   |   7   |    0.2094447 |    5.69928 |  45967.792 |  91.59 |   8.41 |
 | a   |   1   |   8   |    0.2202306 |    5.99278 |  48335.025 |  88.80 |  11.20 |
 | a   |   1   |   9   |    0.2295038 |    6.24512 |  50370.255 |  89.94 |  10.06 |
 | a   |   1   |  10   |    0.2344631 |    6.38007 |  51458.700 |  91.03 |   8.97 |
 | a   |   1   |  11   |    0.2377306 |    6.46898 |  52175.825 |  83.59 |  16.41 |
 | a   |   1   |  12   |    0.2380608 |    6.47796 |  52248.305 |  91.09 |   8.91 |
 | a   |   1   |  13   |    0.2405359 |    6.54532 |  52791.538 |  89.91 |  10.09 |
 | a   |   1   |  14   |    0.2453345 |    6.67589 |  53844.707 |  90.41 |   9.59 |
 | a   |   1   |  15   |    0.2514550 |    6.84244 |  55187.984 |  85.47 |  14.53 |
 +================================================================================+


       Energy:     0.1386595 H      3.77312 eV    30432.253 cm-1

     +=======================================================================+
     | type: RE0                    symmetry: a               state:    1    |
     +-----------------------+-----------------------+-----------------------+
     | occ. orb.  index spin | vir. orb.  index spin |  coeff/|amp|     %    |
     +=======================+=======================+=======================+
     |   48 a       48       |   55 a       55       |   0.87422      76.4   |
     |   48 a       48       |   68 a       68       |   0.24089       5.8   |
     |   48 a       48       |   58 a       58       |   0.19456       3.8   |
     |   48 a       48       |   69 a       69       |  -0.16488       2.7   |
     |   48 a       48       |   71 a       71       |   0.12601       1.6   |
     |   48 a       48       |   73 a       73       |  -0.12355       1.5   |
     |   48 a       48       |   70 a       70       |  -0.11335       1.3   |
     |   48 a       48       |   65 a       65       |   0.10235       1.0   |
     |   48 a       48       |   54 a       54       |   0.09842       1.0   |
     +=======================+=======================+=======================+
     norm of printed elements:  0.95148


       Energy:     0.1587625 H      4.32015 eV    34844.342 cm-1

     +=======================================================================+
     | type: RE0                    symmetry: a               state:    2    |
     +-----------------------+-----------------------+-----------------------+
     | occ. orb.  index spin | vir. orb.  index spin |  coeff/|amp|     %    |
     +=======================+=======================+=======================+
     |   53 a       53       |   55 a       55       |   0.91982      84.6   |
     |   53 a       53       |   61 a       61       |   0.23685       5.6   |
     |   53 a       53       |   54 a       54       |   0.11099       1.2   |
     |   52 a       52       |   61 a       61       |  -0.10931       1.2   |
     |   52 a       52       |   58 a       58       |   0.08316       0.7   |
     |   53 a       53       |   65 a       65       |  -0.06855       0.5   |
     |   52 a       52       |   55 a       55       |   0.06062       0.4   |
     |   49 a       49       |   55 a       55       |  -0.05897       0.3   |
     |   46 a       46       |   55 a       55       |   0.05697       0.3   |
     |   53 a       53       |   56 a       56       |  -0.05681       0.3   |
     +=======================+=======================+=======================+
     norm of printed elements:  0.95168


       Energy:     0.1630218 H      4.43605 eV    35779.160 cm-1

     +=======================================================================+
     | type: RE0                    symmetry: a               state:    3    |
     +-----------------------+-----------------------+-----------------------+
     | occ. orb.  index spin | vir. orb.  index spin |  coeff/|amp|     %    |
     +=======================+=======================+=======================+
     |   47 a       47       |   55 a       55       |   0.84204      70.9   |
     |   47 a       47       |   68 a       68       |   0.22146       4.9   |
     |   47 a       47       |   58 a       58       |   0.18608       3.5   |
     |   47 a       47       |   69 a       69       |  -0.15153       2.3   |
     |   46 a       46       |   55 a       55       |   0.13797       1.9   |
     |   45 a       45       |   55 a       55       |   0.13195       1.7   |
     |   51 a       51       |   55 a       55       |  -0.12115       1.5   |
     |   47 a       47       |   71 a       71       |   0.11539       1.3   |
     |   47 a       47       |   73 a       73       |  -0.11182       1.3   |
     |   47 a       47       |   70 a       70       |  -0.10400       1.1   |
     |   47 a       47       |   54 a       54       |   0.09489       0.9   |
     |   43 a       43       |   55 a       55       |  -0.09189       0.8   |
     |   47 a       47       |   65 a       65       |   0.08852       0.8   |
     |   47 a       47       |   76 a       76       |   0.08386       0.7   |
     |   47 a       47       |   56 a       56       |  -0.07072       0.5   |
     |   35 a       35       |   55 a       55       |   0.07067       0.5   |
     |   44 a       44       |   55 a       55       |   0.06223       0.4   |
     |   48 a       48       |   55 a       55       |  -0.05196       0.3   |
     +=======================+=======================+=======================+
     norm of printed elements:  0.95229


       Energy:     0.1686622 H      4.58953 eV    37017.071 cm-1

     +=======================================================================+
     | type: RE0                    symmetry: a               state:    4    |
     +-----------------------+-----------------------+-----------------------+
     | occ. orb.  index spin | vir. orb.  index spin |  coeff/|amp|     %    |
     +=======================+=======================+=======================+
     |   53 a       53       |   61 a       61       |   0.64618      41.8   |
     |   52 a       52       |   55 a       55       |   0.46945      22.0   |
     |   53 a       53       |   58 a       58       |  -0.46109      21.3   |
     |   53 a       53       |   55 a       55       |  -0.19118       3.7   |
     |   52 a       52       |   65 a       65       |  -0.13386       1.8   |
     |   53 a       53       |   60 a       60       |  -0.11516       1.3   |
     |   52 a       52       |   58 a       58       |   0.10153       1.0   |
     |   53 a       53       |   59 a       59       |   0.08184       0.7   |
     |   53 a       53       |   70 a       70       |  -0.06305       0.4   |
     |   53 a       53       |   76 a       76       |  -0.05532       0.3   |
     |   52 a       52       |   54 a       54       |   0.05466       0.3   |
     |   53 a       53       |   68 a       68       |  -0.05118       0.3   |
     |   53 a       53       |   56 a       56       |   0.04944       0.2   |
     +=======================+=======================+=======================+
     norm of printed elements:  0.95037


       Energy:     0.2015325 H      5.48398 eV    44231.273 cm-1

     +=======================================================================+
     | type: RE0                    symmetry: a               state:    5    |
     +-----------------------+-----------------------+-----------------------+
     | occ. orb.  index spin | vir. orb.  index spin |  coeff/|amp|     %    |
     +=======================+=======================+=======================+
     |   52 a       52       |   55 a       55       |   0.75660      57.2   |
     |   50 a       50       |   55 a       55       |  -0.36186      13.1   |
     |   53 a       53       |   61 a       61       |  -0.34374      11.8   |
     |   53 a       53       |   58 a       58       |   0.25189       6.3   |
     |   52 a       52       |   58 a       58       |   0.11324       1.3   |
     |   46 a       46       |   61 a       61       |  -0.10342       1.1   |
     |   52 a       52       |   54 a       54       |   0.07971       0.6   |
     |   50 a       50       |   58 a       58       |  -0.06721       0.5   |
     |   50 a       50       |   68 a       68       |  -0.06696       0.4   |
     |   53 a       53       |   60 a       60       |   0.06445       0.4   |
     |   52 a       52       |   61 a       61       |   0.05991       0.4   |
     |   50 a       50       |   65 a       65       |  -0.05944       0.4   |
     |   46 a       46       |   58 a       58       |   0.05906       0.3   |
     |   53 a       53       |   54 a       54       |  -0.05376       0.3   |
     |   52 a       52       |   56 a       56       |  -0.04616       0.2   |
     |   50 a       50       |   69 a       69       |   0.04492       0.2   |
     |   52 a       52       |   65 a       65       |  -0.04402       0.2   |
     |   50 a       50       |   54 a       54       |  -0.04224       0.2   |
     |   52 a       52       |   68 a       68       |   0.04117       0.2   |
     |   53 a       53       |   56 a       56       |  -0.04004       0.2   |
     +=======================+=======================+=======================+
     norm of printed elements:  0.95269


       Energy:     0.2023772 H      5.50696 eV    44416.653 cm-1

     +=======================================================================+
     | type: RE0                    symmetry: a               state:    6    |
     +-----------------------+-----------------------+-----------------------+
     | occ. orb.  index spin | vir. orb.  index spin |  coeff/|amp|     %    |
     +=======================+=======================+=======================+
     |   53 a       53       |   54 a       54       |   0.45302      20.5   |
     |   53 a       53       |   67 a       67       |   0.45022      20.3   |
     |   53 a       53       |   63 a       63       |  -0.32170      10.3   |
     |   53 a       53       |   64 a       64       |  -0.27248       7.4   |
     |   53 a       53       |   69 a       69       |   0.25439       6.5   |
     |   53 a       53       |   66 a       66       |  -0.22698       5.2   |
     |   53 a       53       |   57 a       57       |  -0.20777       4.3   |
     |   53 a       53       |   68 a       68       |   0.17673       3.1   |
     |   53 a       53       |   56 a       56       |  -0.17362       3.0   |
     |   52 a       52       |   67 a       67       |   0.14166       2.0   |
     |   52 a       52       |   54 a       54       |   0.12496       1.6   |
     |   53 a       53       |   84 a       84       |   0.09999       1.0   |
     |   52 a       52       |   64 a       64       |  -0.09492       0.9   |
     |   53 a       53       |   62 a       62       |   0.08932       0.8   |
     |   52 a       52       |   63 a       63       |  -0.08819       0.8   |
     |   49 a       49       |   67 a       67       |   0.08795       0.8   |
     |   52 a       52       |   69 a       69       |   0.08620       0.7   |
     |   53 a       53       |   83 a       83       |   0.07581       0.6   |
     |   53 a       53       |   92 a       92       |  -0.07470       0.6   |
     |   53 a       53       |   74 a       74       |   0.07261       0.5   |
     +=======================+=======================+=======================+
     norm of printed elements:  0.90865


       Energy:     0.2094447 H      5.69928 eV    45967.792 cm-1

     +=======================================================================+
     | type: RE0                    symmetry: a               state:    7    |
     +-----------------------+-----------------------+-----------------------+
     | occ. orb.  index spin | vir. orb.  index spin |  coeff/|amp|     %    |
     +=======================+=======================+=======================+
     |   53 a       53       |   56 a       56       |   0.73888      54.6   |
     |   53 a       53       |   54 a       54       |   0.44292      19.6   |
     |   53 a       53       |   59 a       59       |  -0.27144       7.4   |
     |   53 a       53       |   57 a       57       |   0.22177       4.9   |
     |   46 a       46       |   56 a       56       |   0.16410       2.7   |
     |   53 a       53       |   80 a       80       |  -0.10357       1.1   |
     |   46 a       46       |   54 a       54       |   0.09901       1.0   |
     |   53 a       53       |   64 a       64       |   0.09145       0.8   |
     |   53 a       53       |   84 a       84       |   0.08827       0.8   |
     |   52 a       52       |   56 a       56       |  -0.07884       0.6   |
     |   46 a       46       |   59 a       59       |  -0.07418       0.6   |
     |   53 a       53       |   74 a       74       |  -0.06782       0.5   |
     |   53 a       53       |   63 a       63       |  -0.06511       0.4   |
     |   53 a       53       |   87 a       87       |  -0.06327       0.4   |
     +=======================+=======================+=======================+
     norm of printed elements:  0.95316


       Energy:     0.2202306 H      5.99278 eV    48335.025 cm-1

     +=======================================================================+
     | type: RE0                    symmetry: a               state:    8    |
     +-----------------------+-----------------------+-----------------------+
     | occ. orb.  index spin | vir. orb.  index spin |  coeff/|amp|     %    |
     +=======================+=======================+=======================+
     |   50 a       50       |   55 a       55       |   0.82932      68.8   |
     |   52 a       52       |   55 a       55       |   0.30788       9.5   |
     |   50 a       50       |   58 a       58       |   0.16193       2.6   |
     |   53 a       53       |   61 a       61       |  -0.15298       2.3   |
     |   50 a       50       |   68 a       68       |   0.12520       1.6   |
     |   53 a       53       |   58 a       58       |   0.11910       1.4   |
     |   46 a       46       |   61 a       61       |  -0.10532       1.1   |
     |   49 a       49       |   55 a       55       |  -0.09952       1.0   |
     |   50 a       50       |   65 a       65       |   0.09721       0.9   |
     |   50 a       50       |   54 a       54       |   0.09440       0.9   |
     |   50 a       50       |   69 a       69       |  -0.08665       0.8   |
     |   50 a       50       |   56 a       56       |  -0.06715       0.5   |
     |   50 a       50       |   73 a       73       |  -0.06513       0.4   |
     |   50 a       50       |   71 a       71       |   0.06466       0.4   |
     |   46 a       46       |   58 a       58       |   0.06382       0.4   |
     |   50 a       50       |   70 a       70       |  -0.05928       0.4   |
     |   52 a       52       |   58 a       58       |   0.05891       0.3   |
     |   52 a       52       |   65 a       65       |  -0.04559       0.2   |
     |   48 a       48       |   60 a       60       |  -0.04182       0.2   |
     |   50 a       50       |   76 a       76       |   0.03738       0.1   |
     +=======================+=======================+=======================+
     norm of printed elements:  0.93812


       Energy:     0.2295038 H      6.24512 eV    50370.255 cm-1

     +=======================================================================+
     | type: RE0                    symmetry: a               state:    9    |
     +-----------------------+-----------------------+-----------------------+
     | occ. orb.  index spin | vir. orb.  index spin |  coeff/|amp|     %    |
     +=======================+=======================+=======================+
     |   52 a       52       |   61 a       61       |   0.49373      24.4   |
     |   53 a       53       |   65 a       65       |   0.44968      20.2   |
     |   52 a       52       |   58 a       58       |  -0.36097      13.0   |
     |   53 a       53       |   68 a       68       |   0.35738      12.8   |
     |   53 a       53       |   69 a       69       |  -0.24345       5.9   |
     |   53 a       53       |   71 a       71       |   0.18091       3.3   |
     |   46 a       46       |   55 a       55       |  -0.17113       2.9   |
     |   53 a       53       |   70 a       70       |  -0.16339       2.7   |
     |   53 a       53       |   76 a       76       |   0.13988       2.0   |
     |   53 a       53       |   73 a       73       |  -0.10368       1.1   |
     |   52 a       52       |   60 a       60       |  -0.08794       0.8   |
     |   49 a       49       |   58 a       58       |  -0.07865       0.6   |
     |   53 a       53       |   75 a       75       |   0.07627       0.6   |
     |   53 a       53       |   77 a       77       |  -0.07252       0.5   |
     |   53 a       53       |   57 a       57       |   0.06492       0.4   |
     |   53 a       53       |   62 a       62       |   0.06197       0.4   |
     |   49 a       49       |   61 a       61       |   0.06180       0.4   |
     |   52 a       52       |   59 a       59       |   0.06002       0.4   |
     |   53 a       53       |   55 a       55       |   0.05980       0.4   |
     |   53 a       53       |   85 a       85       |   0.05863       0.3   |
     +=======================+=======================+=======================+
     norm of printed elements:  0.92978


       Energy:     0.2344631 H      6.38007 eV    51458.700 cm-1

     +=======================================================================+
     | type: RE0                    symmetry: a               state:   10    |
     +-----------------------+-----------------------+-----------------------+
     | occ. orb.  index spin | vir. orb.  index spin |  coeff/|amp|     %    |
     +=======================+=======================+=======================+
     |   52 a       52       |   67 a       67       |   0.40775      16.6   |
     |   52 a       52       |   54 a       54       |   0.31837      10.1   |
     |   52 a       52       |   63 a       63       |  -0.29644       8.8   |
     |   52 a       52       |   64 a       64       |  -0.26273       6.9   |
     |   53 a       53       |   57 a       57       |   0.26162       6.8   |
     |   53 a       53       |   54 a       54       |  -0.22977       5.3   |
     |   52 a       52       |   69 a       69       |   0.22664       5.1   |
     |   52 a       52       |   56 a       56       |  -0.21194       4.5   |
     |   52 a       52       |   66 a       66       |  -0.20392       4.2   |
     |   52 a       52       |   57 a       57       |  -0.19402       3.8   |
     |   53 a       53       |   59 a       59       |   0.17733       3.1   |
     |   52 a       52       |   68 a       68       |   0.15683       2.5   |
     |   49 a       49       |   67 a       67       |   0.15164       2.3   |
     |   53 a       53       |   56 a       56       |   0.13428       1.8   |
     |   49 a       49       |   54 a       54       |   0.10860       1.2   |
     |   49 a       49       |   64 a       64       |  -0.10020       1.0   |
     |   49 a       49       |   69 a       69       |   0.09507       0.9   |
     |   49 a       49       |   63 a       63       |  -0.09097       0.8   |
     |   52 a       52       |   84 a       84       |   0.08864       0.8   |
     |   52 a       52       |   62 a       62       |   0.07959       0.6   |
     +=======================+=======================+=======================+
     norm of printed elements:  0.87168


       Energy:     0.2377306 H      6.46898 eV    52175.825 cm-1

     +=======================================================================+
     | type: RE0                    symmetry: a               state:   11    |
     +-----------------------+-----------------------+-----------------------+
     | occ. orb.  index spin | vir. orb.  index spin |  coeff/|amp|     %    |
     +=======================+=======================+=======================+
     |   48 a       48       |   61 a       61       |   0.78430      61.5   |
     |   48 a       48       |   58 a       58       |  -0.51193      26.2   |
     |   48 a       48       |   60 a       60       |  -0.13448       1.8   |
     |   48 a       48       |   55 a       55       |   0.10536       1.1   |
     |   48 a       48       |   59 a       59       |   0.09834       1.0   |
     |   53 a       53       |   60 a       60       |   0.09625       0.9   |
     |   53 a       53       |   57 a       57       |   0.09371       0.9   |
     |   48 a       48       |   76 a       76       |  -0.08349       0.7   |
     |   51 a       51       |   61 a       61       |  -0.07832       0.6   |
     |   53 a       53       |   62 a       62       |   0.06871       0.5   |
     +=======================+=======================+=======================+
     norm of printed elements:  0.95193


       Energy:     0.2380608 H      6.47796 eV    52248.305 cm-1

     +=======================================================================+
     | type: RE0                    symmetry: a               state:   12    |
     +-----------------------+-----------------------+-----------------------+
     | occ. orb.  index spin | vir. orb.  index spin |  coeff/|amp|     %    |
     +=======================+=======================+=======================+
     |   53 a       53       |   60 a       60       |   0.51431      26.5   |
     |   53 a       53       |   57 a       57       |   0.51430      26.5   |
     |   53 a       53       |   62 a       62       |   0.36877      13.6   |
     |   53 a       53       |   56 a       56       |  -0.24329       5.9   |
     |   52 a       52       |   61 a       61       |  -0.20436       4.2   |
     |   53 a       53       |   59 a       59       |  -0.16413       2.7   |
     |   52 a       52       |   58 a       58       |   0.14492       2.1   |
     |   53 a       53       |   54 a       54       |   0.13677       1.9   |
     |   48 a       48       |   61 a       61       |  -0.13167       1.7   |
     |   53 a       53       |   63 a       63       |   0.09606       0.9   |
     |   46 a       46       |   56 a       56       |  -0.09320       0.9   |
     |   48 a       48       |   58 a       58       |   0.08578       0.7   |
     |   52 a       52       |   56 a       56       |   0.08549       0.7   |
     |   53 a       53       |   84 a       84       |   0.08367       0.7   |
     |   52 a       52       |   54 a       54       |   0.08112       0.7   |
     |   52 a       52       |   59 a       59       |  -0.07926       0.6   |
     |   53 a       53       |   87 a       87       |  -0.07900       0.6   |
     |   53 a       53       |   83 a       83       |  -0.07092       0.5   |
     |   53 a       53       |   55 a       55       |  -0.06973       0.5   |
     |   53 a       53       |   61 a       61       |   0.06629       0.4   |
     +=======================+=======================+=======================+
     norm of printed elements:  0.92292


       Energy:     0.2405359 H      6.54532 eV    52791.538 cm-1

     +=======================================================================+
     | type: RE0                    symmetry: a               state:   13    |
     +-----------------------+-----------------------+-----------------------+
     | occ. orb.  index spin | vir. orb.  index spin |  coeff/|amp|     %    |
     +=======================+=======================+=======================+
     |   52 a       52       |   61 a       61       |   0.51363      26.4   |
     |   53 a       53       |   65 a       65       |  -0.37323      13.9   |
     |   52 a       52       |   58 a       58       |  -0.37219      13.9   |
     |   53 a       53       |   68 a       68       |  -0.28026       7.9   |
     |   53 a       53       |   69 a       69       |   0.19965       4.0   |
     |   46 a       46       |   55 a       55       |   0.15462       2.4   |
     |   53 a       53       |   60 a       60       |   0.14756       2.2   |
     |   53 a       53       |   71 a       71       |  -0.14452       2.1   |
     |   53 a       53       |   57 a       57       |   0.13551       1.8   |
     |   49 a       49       |   55 a       55       |   0.13219       1.7   |
     |   49 a       49       |   61 a       61       |   0.13082       1.7   |
     |   53 a       53       |   70 a       70       |   0.11943       1.4   |
     |   53 a       53       |   56 a       56       |  -0.11070       1.2   |
     |   53 a       53       |   76 a       76       |  -0.10821       1.2   |
     |   53 a       53       |   58 a       58       |  -0.09675       0.9   |
     |   52 a       52       |   60 a       60       |  -0.09517       0.9   |
     |   52 a       52       |   65 a       65       |   0.08984       0.8   |
     |   53 a       53       |   55 a       55       |   0.07768       0.6   |
     |   53 a       53       |   62 a       62       |   0.07743       0.6   |
     |   53 a       53       |   73 a       73       |   0.07505       0.6   |
     +=======================+=======================+=======================+
     norm of printed elements:  0.86194


       Energy:     0.2453345 H      6.67589 eV    53844.707 cm-1

     +=======================================================================+
     | type: RE0                    symmetry: a               state:   14    |
     +-----------------------+-----------------------+-----------------------+
     | occ. orb.  index spin | vir. orb.  index spin |  coeff/|amp|     %    |
     +=======================+=======================+=======================+
     |   53 a       53       |   59 a       59       |   0.40064      16.1   |
     |   53 a       53       |   64 a       64       |  -0.38730      15.0   |
     |   53 a       53       |   57 a       57       |   0.37753      14.3   |
     |   53 a       53       |   54 a       54       |  -0.27828       7.7   |
     |   52 a       52       |   54 a       54       |  -0.26716       7.1   |
     |   53 a       53       |   56 a       56       |   0.23186       5.4   |
     |   53 a       53       |   62 a       62       |   0.20890       4.4   |
     |   53 a       53       |   63 a       63       |  -0.19855       3.9   |
     |   53 a       53       |   67 a       67       |   0.17536       3.1   |
     |   52 a       52       |   67 a       67       |  -0.15860       2.5   |
     |   53 a       53       |   66 a       66       |  -0.11703       1.4   |
     |   52 a       52       |   69 a       69       |  -0.11332       1.3   |
     |   53 a       53       |   70 a       70       |   0.10799       1.2   |
     |   52 a       52       |   63 a       63       |   0.10480       1.1   |
     |   53 a       53       |   71 a       71       |   0.09698       0.9   |
     |   52 a       52       |   64 a       64       |   0.09640       0.9   |
     |   53 a       53       |   89 a       89       |   0.09047       0.8   |
     |   53 a       53       |   60 a       60       |  -0.08864       0.8   |
     |   53 a       53       |   88 a       88       |  -0.07933       0.6   |
     |   49 a       49       |   54 a       54       |  -0.07830       0.6   |
     +=======================+=======================+=======================+
     norm of printed elements:  0.89093


       Energy:     0.2514550 H      6.84244 eV    55187.984 cm-1

     +=======================================================================+
     | type: RE0                    symmetry: a               state:   15    |
     +-----------------------+-----------------------+-----------------------+
     | occ. orb.  index spin | vir. orb.  index spin |  coeff/|amp|     %    |
     +=======================+=======================+=======================+
     |   47 a       47       |   61 a       61       |  -0.63617      40.5   |
     |   47 a       47       |   58 a       58       |   0.41932      17.6   |
     |   51 a       51       |   61 a       61       |   0.38202      14.6   |
     |   51 a       51       |   55 a       55       |   0.34882      12.2   |
     |   51 a       51       |   58 a       58       |  -0.19113       3.7   |
     |   47 a       47       |   60 a       60       |   0.10997       1.2   |
     |   46 a       46       |   61 a       61       |  -0.10098       1.0   |
     |   45 a       45       |   61 a       61       |  -0.09024       0.8   |
     |   48 a       48       |   61 a       61       |   0.08910       0.8   |
     |   47 a       47       |   59 a       59       |  -0.07983       0.6   |
     |   47 a       47       |   76 a       76       |   0.07339       0.5   |
     |   46 a       46       |   58 a       58       |   0.06757       0.5   |
     |   45 a       45       |   58 a       58       |   0.06377       0.4   |
     |   51 a       51       |   60 a       60       |  -0.06374       0.4   |
     |   48 a       48       |   58 a       58       |  -0.06153       0.4   |
     +=======================+=======================+=======================+
     norm of printed elements:  0.95130



     Info: copy ADC(2) right eigenvectors into left eigenvector files.


                    ========   CC DENSITY MODULE   ========

                      current wave-function model: ADC(2)  

  calculating overlap between   15 left and right vector(s)
    density nr.      cpu/min        wall/min    L     R
   ------------------------------------------------------
         1             0.92            1.65    LE0    RE0 
         2             0.92            1.65    LE0    RE0 
         3             0.92            1.65    LE0    RE0 
         4             0.92            1.65    LE0    RE0 
         5             0.92            1.71    LE0    RE0 
         6             0.92            1.66    LE0    RE0 
         7             0.93            1.66    LE0    RE0 
         8             0.92            1.65    LE0    RE0 
         9             0.92            1.66    LE0    RE0 
        10             0.92            1.65    LE0    RE0 
        11             0.92            1.65    LE0    RE0 
        12             0.92            1.96    LE0    RE0 
        13             0.92            1.65    LE0    RE0 
        14             0.92            1.65    LE0    RE0 
        15             0.92            1.65    LE0    RE0 
   ------------------------------------------------------
     time in cc_1den       cpu: 13 min 49 s  wall: 25 min  8 s  ratio:  0.5



     +==========================================================+
     |   contributions of excitation levels to excited states   |
     |     wavefunctions as computed from the <L|R> overlap     |
     +----------------------------------------------------------+
     | sym | multi | state |    E / eV  | % singles | % doubles |
     +==========================================================+
     | a   |   1   |   1   |    3.77312 |   89.69   |   10.31   |
     | a   |   1   |   2   |    4.32015 |   88.22   |   11.78   |
     | a   |   1   |   3   |    4.43605 |   90.08   |    9.92   |
     | a   |   1   |   4   |    4.58953 |   89.35   |   10.65   |
     | a   |   1   |   5   |    5.48398 |   88.38   |   11.62   |
     | a   |   1   |   6   |    5.50696 |   91.29   |    8.71   |
     | a   |   1   |   7   |    5.69928 |   91.59   |    8.41   |
     | a   |   1   |   8   |    5.99278 |   88.80   |   11.20   |
     | a   |   1   |   9   |    6.24512 |   89.94   |   10.06   |
     | a   |   1   |  10   |    6.38007 |   91.03   |    8.97   |
     | a   |   1   |  11   |    6.46898 |   83.59   |   16.41   |
     | a   |   1   |  12   |    6.47796 |   91.08   |    8.92   |
     | a   |   1   |  13   |    6.54532 |   89.91   |   10.09   |
     | a   |   1   |  14   |    6.67589 |   90.41   |    9.59   |
     | a   |   1   |  15   |    6.84244 |   85.47   |   14.53   |
     +==========================================================+



      The semi-canonical algorithm will be used for densities


                    ========   CC DENSITY MODULE   ========

                      current wave-function model: ADC(2)  

  calculating    15 xi densities

   a semicanonical algorithm will be used

    density nr.      cpu/min        wall/min    L     R
   ------------------------------------------------------
         1             1.64            6.41    LE0    R0  
         2             1.65            5.97    LE0    R0  
         3             1.65            5.60    LE0    R0  
         4             1.63            6.76    LE0    R0  
         5             1.63            7.78    LE0    R0  
         6             1.63            9.46    LE0    R0  
         7             1.64            6.67    LE0    R0  
         8             1.63            7.13    LE0    R0  
         9             1.65            7.44    LE0    R0  
        10             1.65            5.89    LE0    R0  
        11             1.64            5.85    LE0    R0  
        12             1.64            6.30    LE0    R0  
        13             1.63            6.64    LE0    R0  
        14             1.63            5.93    LE0    R0  
        15             1.64            5.99    LE0    R0  
   ------------------------------------------------------
     time in cc_1den       cpu:  0 h 24 min  wall:  1 h 39 min  ratio:  0.2


 **************************************************************
 *                                                            *
 *<<<<<<<<<<<<  ONE-PHOTON ABSORPTION STRENGTHS  >>>>>>>>>>>>>*
 *                                                            *
 **************************************************************



  +=========================================================================+
  |  Transition                                             model: ADC(2)   |
  |    number, symmetry, multiplicity:    1 a    1                          |
  |    frequency :   0.1386595465 a.u.     3.77312 e.V.     30432.3 rcm     |
  +=========================================================================+

     +-----------+-----------------+-----------------+---------------------+
     | operator  |   left moment   |  right moment   | transition strength |
     +-----------+-----------------+-----------------+---------------------+
     | xdiplen   |     -0.00295386 |     -0.00295386 |       0.00000873    |
     | ydiplen   |     -0.00140847 |     -0.00140847 |       0.00000198    |
     | zdiplen   |      0.00066333 |      0.00066333 |       0.00000044    |
     | xdipvel   |     -0.00041291 |      0.00041291 |       0.00000017    |
     | ydipvel   |     -0.00020766 |      0.00020766 |       0.00000004    |
     | zdipvel   |      0.00001423 |     -0.00001423 |       0.00000000    |
     | xangmom   |      0.48936618 |     -0.48936618 |       0.23947926    |
     | yangmom   |      0.27539961 |     -0.27539961 |       0.07584495    |
     | zangmom   |     -0.00034138 |      0.00034138 |       0.00000012    |
     +-----------+-----------------+-----------------+---------------------+
 
       oscillator strength (length gauge)   :      0.00000103
       oscillator strength (velocity gauge) :      0.00000103
       oscillator strength (mixed gauge)    :      0.00000101
 
       rotator strength (length gauge)      :     -0.00091682 a.u.
       Rotator strength (length gauge)      :     -0.43222795 10^(-40)*erg*cm^3
       rotator strength (velocity gauge)    :     -0.00093487 a.u.
       Rotator strength (velocity gauge)    :     -0.44073920 10^(-40)*erg*cm^3
 


  +=========================================================================+
  |  Transition                                             model: ADC(2)   |
  |    number, symmetry, multiplicity:    2 a    1                          |
  |    frequency :   0.1587625035 a.u.     4.32015 e.V.     34844.3 rcm     |
  +=========================================================================+

     +-----------+-----------------+-----------------+---------------------+
     | operator  |   left moment   |  right moment   | transition strength |
     +-----------+-----------------+-----------------+---------------------+
     | xdiplen   |      1.65370191 |      1.65370191 |       2.73473001    |
     | ydiplen   |      0.76400524 |      0.76400524 |       0.58370401    |
     | zdiplen   |     -0.01380022 |     -0.01380022 |       0.00019045    |
     | xdipvel   |      0.26044455 |     -0.26044455 |       0.06783137    |
     | ydipvel   |      0.12653115 |     -0.12653115 |       0.01601013    |
     | zdipvel   |     -0.00335497 |      0.00335497 |       0.00001126    |
     | xangmom   |      0.00137475 |     -0.00137475 |       0.00000189    |
     | yangmom   |      0.00741309 |     -0.00741309 |       0.00005495    |
     | zangmom   |      0.14844551 |     -0.14844551 |       0.02203607    |
     +-----------+-----------------+-----------------+---------------------+
 
       oscillator strength (length gauge)   :      0.35124875
       oscillator strength (velocity gauge) :      0.35210981
       oscillator strength (mixed gauge)    :      0.35160961
 
       rotator strength (length gauge)      :      0.00294424 a.u.
       Rotator strength (length gauge)      :      1.38804350 10^(-40)*erg*cm^3
       rotator strength (velocity gauge)    :      0.00251320 a.u.
       Rotator strength (velocity gauge)    :      1.18482963 10^(-40)*erg*cm^3
 


  +=========================================================================+
  |  Transition                                             model: ADC(2)   |
  |    number, symmetry, multiplicity:    3 a    1                          |
  |    frequency :   0.1630218494 a.u.     4.43605 e.V.     35779.2 rcm     |
  +=========================================================================+

     +-----------+-----------------+-----------------+---------------------+
     | operator  |   left moment   |  right moment   | transition strength |
     +-----------+-----------------+-----------------+---------------------+
     | xdiplen   |     -0.00541698 |     -0.00541698 |       0.00002934    |
     | ydiplen   |     -0.00213244 |     -0.00213244 |       0.00000455    |
     | zdiplen   |     -0.06393256 |     -0.06393256 |       0.00408737    |
     | xdipvel   |     -0.00087177 |      0.00087177 |       0.00000076    |
     | ydipvel   |     -0.00034042 |      0.00034042 |       0.00000012    |
     | zdipvel   |     -0.01471465 |      0.01471465 |       0.00021652    |
     | xangmom   |      0.55511102 |     -0.55511102 |       0.30814824    |
     | yangmom   |     -0.98053072 |      0.98053072 |       0.96144049    |
     | zangmom   |     -0.00440261 |      0.00440261 |       0.00001938    |
     +-----------+-----------------+-----------------+---------------------+
 
       oscillator strength (length gauge)   :      0.00044790
       oscillator strength (velocity gauge) :      0.00088903
       oscillator strength (mixed gauge)    :      0.00063080
 
       rotator strength (length gauge)      :     -0.00031732 a.u.
       Rotator strength (length gauge)      :     -0.14959661 10^(-40)*erg*cm^3
       rotator strength (velocity gauge)    :     -0.00026179 a.u.
       Rotator strength (velocity gauge)    :     -0.12342075 10^(-40)*erg*cm^3
 


  +=========================================================================+
  |  Transition                                             model: ADC(2)   |
  |    number, symmetry, multiplicity:    4 a    1                          |
  |    frequency :   0.1686621880 a.u.     4.58953 e.V.     37017.1 rcm     |
  +=========================================================================+

     +-----------+-----------------+-----------------+---------------------+
     | operator  |   left moment   |  right moment   | transition strength |
     +-----------+-----------------+-----------------+---------------------+
     | xdiplen   |     -0.33048498 |     -0.33048498 |       0.10922032    |
     | ydiplen   |     -0.68044144 |     -0.68044144 |       0.46300055    |
     | zdiplen   |      0.00668672 |      0.00668672 |       0.00004471    |
     | xdipvel   |     -0.05650785 |      0.05650785 |       0.00319314    |
     | ydipvel   |     -0.11098399 |      0.11098399 |       0.01231745    |
     | zdipvel   |      0.00191456 |     -0.00191456 |       0.00000367    |
     | xangmom   |      0.00975181 |     -0.00975181 |       0.00009510    |
     | yangmom   |     -0.00870137 |      0.00870137 |       0.00007571    |
     | zangmom   |      0.69395211 |     -0.69395211 |       0.48156954    |
     +-----------+-----------------+-----------------+---------------------+
 
       oscillator strength (length gauge)   :      0.06434638
       oscillator strength (velocity gauge) :      0.06132277
       oscillator strength (mixed gauge)    :      0.06280394
 
       rotator strength (length gauge)      :      0.00366911 a.u.
       Rotator strength (length gauge)      :      1.72977630 10^(-40)*erg*cm^3
       rotator strength (velocity gauge)    :      0.00516794 a.u.
       Rotator strength (velocity gauge)    :      2.43639142 10^(-40)*erg*cm^3
 


  +=========================================================================+
  |  Transition                                             model: ADC(2)   |
  |    number, symmetry, multiplicity:    5 a    1                          |
  |    frequency :   0.2015325093 a.u.     5.48398 e.V.     44231.3 rcm     |
  +=========================================================================+

     +-----------+-----------------+-----------------+---------------------+
     | operator  |   left moment   |  right moment   | transition strength |
     +-----------+-----------------+-----------------+---------------------+
     | xdiplen   |     -0.54067088 |     -0.54067088 |       0.29232500    |
     | ydiplen   |      0.41715079 |      0.41715079 |       0.17401478    |
     | zdiplen   |     -0.01212907 |     -0.01212907 |       0.00014711    |
     | xdipvel   |     -0.08824112 |      0.08824112 |       0.00778650    |
     | ydipvel   |      0.05493904 |     -0.05493904 |       0.00301830    |
     | zdipvel   |     -0.00397909 |      0.00397909 |       0.00001583    |
     | xangmom   |     -0.01256350 |      0.01256350 |       0.00015784    |
     | yangmom   |      0.02737116 |     -0.02737116 |       0.00074918    |
     | zangmom   |      0.35776464 |     -0.35776464 |       0.12799554    |
     +-----------+-----------------+-----------------+---------------------+
 
       oscillator strength (length gauge)   :      0.06267485
       oscillator strength (velocity gauge) :      0.03579448
       oscillator strength (mixed gauge)    :      0.04711702
 
       rotator strength (length gauge)      :      0.00693563 a.u.
       Rotator strength (length gauge)      :      3.26976020 10^(-40)*erg*cm^3
       rotator strength (velocity gauge)    :      0.00294936 a.u.
       Rotator strength (velocity gauge)    :      1.39045855 10^(-40)*erg*cm^3
 


  +=========================================================================+
  |  Transition                                             model: ADC(2)   |
  |    number, symmetry, multiplicity:    6 a    1                          |
  |    frequency :   0.2023771623 a.u.     5.50696 e.V.     44416.7 rcm     |
  +=========================================================================+

     +-----------+-----------------+-----------------+---------------------+
     | operator  |   left moment   |  right moment   | transition strength |
     +-----------+-----------------+-----------------+---------------------+
     | xdiplen   |     -0.04362132 |     -0.04362132 |       0.00190282    |
     | ydiplen   |      0.02168885 |      0.02168885 |       0.00047041    |
     | zdiplen   |      0.09222301 |      0.09222301 |       0.00850508    |
     | xdipvel   |     -0.00727598 |      0.00727598 |       0.00005294    |
     | ydipvel   |      0.00190220 |     -0.00190220 |       0.00000362    |
     | zdipvel   |      0.03106992 |     -0.03106992 |       0.00096534    |
     | xangmom   |      0.05048814 |     -0.05048814 |       0.00254905    |
     | yangmom   |     -0.10254717 |      0.10254717 |       0.01051592    |
     | zangmom   |      0.04122069 |     -0.04122069 |       0.00169915    |
     +-----------+-----------------+-----------------+---------------------+
 
       oscillator strength (length gauge)   :      0.00146768
       oscillator strength (velocity gauge) :      0.00336632
       oscillator strength (mixed gauge)    :      0.00214934
 
       rotator strength (length gauge)      :     -0.00031250 a.u.
       Rotator strength (length gauge)      :     -0.14732464 10^(-40)*erg*cm^3
       rotator strength (velocity gauge)    :      0.00177468 a.u.
       Rotator strength (velocity gauge)    :      0.83665925 10^(-40)*erg*cm^3
 


  +=========================================================================+
  |  Transition                                             model: ADC(2)   |
  |    number, symmetry, multiplicity:    7 a    1                          |
  |    frequency :   0.2094446710 a.u.     5.69928 e.V.     45967.8 rcm     |
  +=========================================================================+

     +-----------+-----------------+-----------------+---------------------+
     | operator  |   left moment   |  right moment   | transition strength |
     +-----------+-----------------+-----------------+---------------------+
     | xdiplen   |     -0.01665926 |     -0.01665926 |       0.00027753    |
     | ydiplen   |      0.01081110 |      0.01081110 |       0.00011688    |
     | zdiplen   |      0.21135619 |      0.21135619 |       0.04467144    |
     | xdipvel   |     -0.00270534 |      0.00270534 |       0.00000732    |
     | ydipvel   |      0.00051382 |     -0.00051382 |       0.00000026    |
     | zdipvel   |      0.05679759 |     -0.05679759 |       0.00322597    |
     | xangmom   |      0.06558290 |     -0.06558290 |       0.00430112    |
     | yangmom   |     -0.58912893 |      0.58912893 |       0.34707290    |
     | zangmom   |      0.05289359 |     -0.05289359 |       0.00279773    |
     +-----------+-----------------+-----------------+---------------------+
 
       oscillator strength (length gauge)   :      0.00629253
       oscillator strength (velocity gauge) :      0.01029245
       oscillator strength (mixed gauge)    :      0.00803676
 
       rotator strength (length gauge)      :      0.00185885 a.u.
       Rotator strength (length gauge)      :      0.87634120 10^(-40)*erg*cm^3
       rotator strength (velocity gauge)    :      0.00602570 a.u.
       Rotator strength (velocity gauge)    :      2.84077683 10^(-40)*erg*cm^3
 


  +=========================================================================+
  |  Transition                                             model: ADC(2)   |
  |    number, symmetry, multiplicity:    8 a    1                          |
  |    frequency :   0.2202305770 a.u.     5.99278 e.V.     48335.0 rcm     |
  +=========================================================================+

     +-----------+-----------------+-----------------+---------------------+
     | operator  |   left moment   |  right moment   | transition strength |
     +-----------+-----------------+-----------------+---------------------+
     | xdiplen   |     -0.86116432 |     -0.86116432 |       0.74160398    |
     | ydiplen   |      1.12477955 |      1.12477955 |       1.26512904    |
     | zdiplen   |      0.01056252 |      0.01056252 |       0.00011157    |
     | xdipvel   |     -0.18438264 |      0.18438264 |       0.03399696    |
     | ydipvel   |      0.24560863 |     -0.24560863 |       0.06032360    |
     | zdipvel   |      0.00262268 |     -0.00262268 |       0.00000688    |
     | xangmom   |      0.00066095 |     -0.00066095 |       0.00000044    |
     | yangmom   |     -0.01299692 |      0.01299692 |       0.00016892    |
     | zangmom   |     -1.42256144 |      1.42256144 |       2.02368105    |
     +-----------+-----------------+-----------------+---------------------+
 
       oscillator strength (length gauge)   :      0.29464569
       oscillator strength (velocity gauge) :      0.28554144
       oscillator strength (mixed gauge)    :      0.29004468
 
       rotator strength (length gauge)      :     -0.01510684 a.u.
       Rotator strength (length gauge)      :     -7.12202414 10^(-40)*erg*cm^3
       rotator strength (velocity gauge)    :     -0.01599447 a.u.
       Rotator strength (velocity gauge)    :     -7.54048893 10^(-40)*erg*cm^3
 


  +=========================================================================+
  |  Transition                                             model: ADC(2)   |
  |    number, symmetry, multiplicity:    9 a    1                          |
  |    frequency :   0.2295037707 a.u.     6.24512 e.V.     50370.3 rcm     |
  +=========================================================================+

     +-----------+-----------------+-----------------+---------------------+
     | operator  |   left moment   |  right moment   | transition strength |
     +-----------+-----------------+-----------------+---------------------+
     | xdiplen   |      0.82931931 |      0.82931931 |       0.68777053    |
     | ydiplen   |      0.01411143 |      0.01411143 |       0.00019913    |
     | zdiplen   |      0.02993689 |      0.02993689 |       0.00089622    |
     | xdipvel   |      0.16381211 |     -0.16381211 |       0.02683441    |
     | ydipvel   |     -0.01560415 |      0.01560415 |       0.00024349    |
     | zdipvel   |      0.00807722 |     -0.00807722 |       0.00006524    |
     | xangmom   |     -0.01481300 |      0.01481300 |       0.00021943    |
     | yangmom   |     -0.05055942 |      0.05055942 |       0.00255625    |
     | zangmom   |     -0.26358247 |      0.26358247 |       0.06947572    |
     +-----------+-----------------+-----------------+---------------------+
 
       oscillator strength (length gauge)   :      0.10539821
       oscillator strength (velocity gauge) :      0.07884587
       oscillator strength (mixed gauge)    :      0.09058277
 
       rotator strength (length gauge)      :     -0.01044451 a.u.
       Rotator strength (length gauge)      :     -4.92399569 10^(-40)*erg*cm^3
       rotator strength (velocity gauge)    :     -0.00820602 a.u.
       Rotator strength (velocity gauge)    :     -3.86867578 10^(-40)*erg*cm^3
 


  +=========================================================================+
  |  Transition                                             model: ADC(2)   |
  |    number, symmetry, multiplicity:   10 a    1                          |
  |    frequency :   0.2344630888 a.u.     6.38007 e.V.     51458.7 rcm     |
  +=========================================================================+

     +-----------+-----------------+-----------------+---------------------+
     | operator  |   left moment   |  right moment   | transition strength |
     +-----------+-----------------+-----------------+---------------------+
     | xdiplen   |     -0.02830229 |     -0.02830229 |       0.00080102    |
     | ydiplen   |      0.00799297 |      0.00799297 |       0.00006389    |
     | zdiplen   |     -0.08499567 |     -0.08499567 |       0.00722426    |
     | xdipvel   |     -0.00576583 |      0.00576583 |       0.00003324    |
     | ydipvel   |      0.00215600 |     -0.00215600 |       0.00000465    |
     | zdipvel   |     -0.01363118 |      0.01363118 |       0.00018581    |
     | xangmom   |     -0.07331122 |      0.07331122 |       0.00537453    |
     | yangmom   |      0.30199447 |     -0.30199447 |       0.09120066    |
     | zangmom   |      0.00795771 |     -0.00795771 |       0.00006333    |
     +-----------+-----------------+-----------------+---------------------+
 
       oscillator strength (length gauge)   :      0.00126441
       oscillator strength (velocity gauge) :      0.00063607
       oscillator strength (mixed gauge)    :      0.00089267
 
       rotator strength (length gauge)      :      0.00190617 a.u.
       Rotator strength (length gauge)      :      0.89865099 10^(-40)*erg*cm^3
       rotator strength (velocity gauge)    :      0.00205859 a.u.
       Rotator strength (velocity gauge)    :      0.97050869 10^(-40)*erg*cm^3
 


  +=========================================================================+
  |  Transition                                             model: ADC(2)   |
  |    number, symmetry, multiplicity:   11 a    1                          |
  |    frequency :   0.2377305503 a.u.     6.46898 e.V.     52175.8 rcm     |
  +=========================================================================+

     +-----------+-----------------+-----------------+---------------------+
     | operator  |   left moment   |  right moment   | transition strength |
     +-----------+-----------------+-----------------+---------------------+
     | xdiplen   |     -0.06319782 |     -0.06319782 |       0.00399396    |
     | ydiplen   |     -0.02617146 |     -0.02617146 |       0.00068495    |
     | zdiplen   |     -0.00791536 |     -0.00791536 |       0.00006265    |
     | xdipvel   |     -0.01384457 |      0.01384457 |       0.00019167    |
     | ydipvel   |     -0.00522928 |      0.00522928 |       0.00002735    |
     | zdipvel   |     -0.00538232 |      0.00538232 |       0.00002897    |
     | xangmom   |     -0.04416992 |      0.04416992 |       0.00195098    |
     | yangmom   |     -0.08159598 |      0.08159598 |       0.00665790    |
     | zangmom   |      0.02880187 |     -0.02880187 |       0.00082955    |
     +-----------+-----------------+-----------------+---------------------+
 
       oscillator strength (length gauge)   :      0.00075148
       oscillator strength (velocity gauge) :      0.00069543
       oscillator strength (mixed gauge)    :      0.00070294
 
       rotator strength (length gauge)      :      0.00234948 a.u.
       Rotator strength (length gauge)      :      1.10764522 10^(-40)*erg*cm^3
       rotator strength (velocity gauge)    :      0.00185753 a.u.
       Rotator strength (velocity gauge)    :      0.87571820 10^(-40)*erg*cm^3
 


  +=========================================================================+
  |  Transition                                             model: ADC(2)   |
  |    number, symmetry, multiplicity:   12 a    1                          |
  |    frequency :   0.2380607934 a.u.     6.47796 e.V.     52248.3 rcm     |
  +=========================================================================+

     +-----------+-----------------+-----------------+---------------------+
     | operator  |   left moment   |  right moment   | transition strength |
     +-----------+-----------------+-----------------+---------------------+
     | xdiplen   |     -0.42233406 |     -0.42233406 |       0.17836606    |
     | ydiplen   |     -0.18096745 |     -0.18096745 |       0.03274922    |
     | zdiplen   |      0.08115450 |      0.08115450 |       0.00658605    |
     | xdipvel   |     -0.09360051 |      0.09360051 |       0.00876106    |
     | ydipvel   |     -0.03788381 |      0.03788381 |       0.00143518    |
     | zdipvel   |      0.01792905 |     -0.01792905 |       0.00032145    |
     | xangmom   |     -0.25849582 |      0.25849582 |       0.06682009    |
     | yangmom   |     -0.02661219 |      0.02661219 |       0.00070821    |
     | zangmom   |      0.19470492 |     -0.19470492 |       0.03791000    |
     +-----------+-----------------+-----------------+---------------------+
 
       oscillator strength (length gauge)   :      0.03455077
       oscillator strength (velocity gauge) :      0.02945379
       oscillator strength (mixed gauge)    :      0.03189429
 
       rotator strength (length gauge)      :      0.06489435 a.u.
       Rotator strength (length gauge)      :     30.59402517 10^(-40)*erg*cm^3
       rotator strength (velocity gauge)    :      0.06026693 a.u.
       Rotator strength (velocity gauge)    :     28.41245512 10^(-40)*erg*cm^3
 


  +=========================================================================+
  |  Transition                                             model: ADC(2)   |
  |    number, symmetry, multiplicity:   13 a    1                          |
  |    frequency :   0.2405359483 a.u.     6.54532 e.V.     52791.5 rcm     |
  +=========================================================================+

     +-----------+-----------------+-----------------+---------------------+
     | operator  |   left moment   |  right moment   | transition strength |
     +-----------+-----------------+-----------------+---------------------+
     | xdiplen   |      1.21259339 |      1.21259339 |       1.47038272    |
     | ydiplen   |      0.53632474 |      0.53632474 |       0.28764423    |
     | zdiplen   |      0.02494292 |      0.02494292 |       0.00062215    |
     | xdipvel   |      0.27975117 |     -0.27975117 |       0.07826072    |
     | ydipvel   |      0.12298188 |     -0.12298188 |       0.01512454    |
     | zdipvel   |      0.00391465 |     -0.00391465 |       0.00001532    |
     | xangmom   |     -0.08723413 |      0.08723413 |       0.00760979    |
     | yangmom   |      0.01148649 |     -0.01148649 |       0.00013194    |
     | zangmom   |     -0.62182647 |      0.62182647 |       0.38666815    |
     +-----------+-----------------+-----------------+---------------------+
 
       oscillator strength (length gauge)   :      0.28201222
       oscillator strength (velocity gauge) :      0.25886799
       oscillator strength (mixed gauge)    :      0.27018686
 
       rotator strength (length gauge)      :     -0.05756460 a.u.
       Rotator strength (length gauge)      :    -27.13846198 10^(-40)*erg*cm^3
       rotator strength (velocity gauge)    :     -0.05285167 a.u.
       Rotator strength (velocity gauge)    :    -24.91657886 10^(-40)*erg*cm^3
 


  +=========================================================================+
  |  Transition                                             model: ADC(2)   |
  |    number, symmetry, multiplicity:   14 a    1                          |
  |    frequency :   0.2453345368 a.u.     6.67589 e.V.     53844.7 rcm     |
  +=========================================================================+

     +-----------+-----------------+-----------------+---------------------+
     | operator  |   left moment   |  right moment   | transition strength |
     +-----------+-----------------+-----------------+---------------------+
     | xdiplen   |      0.06477145 |      0.06477145 |       0.00419534    |
     | ydiplen   |      0.04448136 |      0.04448136 |       0.00197859    |
     | zdiplen   |     -0.28054534 |     -0.28054534 |       0.07870569    |
     | xdipvel   |      0.01631600 |     -0.01631600 |       0.00026621    |
     | ydipvel   |      0.00991441 |     -0.00991441 |       0.00009830    |
     | zdipvel   |     -0.07291773 |      0.07291773 |       0.00531699    |
     | xangmom   |     -0.08716641 |      0.08716641 |       0.00759798    |
     | yangmom   |      0.41338961 |     -0.41338961 |       0.17089097    |
     | zangmom   |     -0.03399090 |      0.03399090 |       0.00115538    |
     +-----------+-----------------+-----------------+---------------------+
 
       oscillator strength (length gauge)   :      0.01388260
       oscillator strength (velocity gauge) :      0.01543879
       oscillator strength (mixed gauge)    :      0.01463636
 
       rotator strength (length gauge)      :      0.01113911 a.u.
       Rotator strength (length gauge)      :      5.25146353 10^(-40)*erg*cm^3
       rotator strength (velocity gauge)    :      0.01050575 a.u.
       Rotator strength (velocity gauge)    :      4.95286699 10^(-40)*erg*cm^3
 


  +=========================================================================+
  |  Transition                                             model: ADC(2)   |
  |    number, symmetry, multiplicity:   15 a    1                          |
  |    frequency :   0.2514549560 a.u.     6.84244 e.V.     55188.0 rcm     |
  +=========================================================================+

     +-----------+-----------------+-----------------+---------------------+
     | operator  |   left moment   |  right moment   | transition strength |
     +-----------+-----------------+-----------------+---------------------+
     | xdiplen   |      0.01732129 |      0.01732129 |       0.00030003    |
     | ydiplen   |      0.01288841 |      0.01288841 |       0.00016611    |
     | zdiplen   |     -0.04287212 |     -0.04287212 |       0.00183802    |
     | xdipvel   |      0.00445754 |     -0.00445754 |       0.00001987    |
     | ydipvel   |      0.00317995 |     -0.00317995 |       0.00001011    |
     | zdipvel   |     -0.01021555 |      0.01021555 |       0.00010436    |
     | xangmom   |      0.00426751 |     -0.00426751 |       0.00001821    |
     | yangmom   |     -0.14842107 |      0.14842107 |       0.02202881    |
     | zangmom   |      0.00572145 |     -0.00572145 |       0.00003274    |
     +-----------+-----------------+-----------------+---------------------+
 
       oscillator strength (length gauge)   :      0.00038626
       oscillator strength (velocity gauge) :      0.00035616
       oscillator strength (mixed gauge)    :      0.00037077
 
       rotator strength (length gauge)      :     -0.00104214 a.u.
       Rotator strength (length gauge)      :     -0.49131113 10^(-40)*erg*cm^3
       rotator strength (velocity gauge)    :     -0.00101688 a.u.
       Rotator strength (velocity gauge)    :     -0.47939918 10^(-40)*erg*cm^3
 
 Exporting transition densities


    ------------------------------------------------------------------------
         total  cpu-time :  6 hours  0 minutes and 24 seconds
         total wall-time :   1 days  2 hours  0 minutes and 20 seconds
    ------------------------------------------------------------------------


   ****  ricc2 : all done  ****


    2023-02-15 17:32:14.258 

