 Entering Gaussian System, Link 0=g09
 Initial command:
 /apps/software//g09/l1.exe /scratch/matheusmaximo/38047.cluster.abaxnet/Gau-14104.inp -scrdir=/scratch/matheusmaximo/38047.cluster.abaxnet/
 Entering Link 1 = /apps/software//g09/l1.exe PID=     14105.
  
 Copyright (c) 1988,1990,1992,1993,1995,1998,2003,2009, Gaussian, Inc.
                  All Rights Reserved.
  
 This is part of the Gaussian(R) 09 program.  It is based on
 the Gaussian(R) 03 system (copyright 2003, Gaussian, Inc.),
 the Gaussian(R) 98 system (copyright 1998, Gaussian, Inc.),
 the Gaussian(R) 94 system (copyright 1995, Gaussian, Inc.),
 the Gaussian 92(TM) system (copyright 1992, Gaussian, Inc.),
 the Gaussian 90(TM) system (copyright 1990, Gaussian, Inc.),
 the Gaussian 88(TM) system (copyright 1988, Gaussian, Inc.),
 the Gaussian 86(TM) system (copyright 1986, Carnegie Mellon
 University), and the Gaussian 82(TM) system (copyright 1983,
 Carnegie Mellon University). Gaussian is a federally registered
 trademark of Gaussian, Inc.
  
 This software contains proprietary and confidential information,
 including trade secrets, belonging to Gaussian, Inc.
  
 This software is provided under written license and may be
 used, copied, transmitted, or stored only in accord with that
 written license.
  
 The following legend is applicable only to US Government
 contracts under FAR:
  
                    RESTRICTED RIGHTS LEGEND
  
 Use, reproduction and disclosure by the US Government is
 subject to restrictions as set forth in subparagraphs (a)
 and (c) of the Commercial Computer Software - Restricted
 Rights clause in FAR 52.227-19.
  
 Gaussian, Inc.
 340 Quinnipiac St., Bldg. 40, Wallingford CT 06492
  
  
 ---------------------------------------------------------------
 Warning -- This program may not be used in any manner that
 competes with the business of Gaussian, Inc. or will provide
 assistance to any competitor of Gaussian, Inc.  The licensee
 of this program is prohibited from giving any competitor of
 Gaussian, Inc. access to this program.  By using this program,
 the user acknowledges that Gaussian, Inc. is engaged in the
 business of creating and licensing software in the field of
 computational chemistry and represents and warrants to the
 licensee that it is not a competitor of Gaussian, Inc. and that
 it will not use this program in any manner prohibited above.
 ---------------------------------------------------------------
  

 Cite this work as:
 Gaussian 09, Revision A.02,
 M. J. Frisch, G. W. Trucks, H. B. Schlegel, G. E. Scuseria, 
 M. A. Robb, J. R. Cheeseman, G. Scalmani, V. Barone, B. Mennucci, 
 G. A. Petersson, H. Nakatsuji, M. Caricato, X. Li, H. P. Hratchian, 
 A. F. Izmaylov, J. Bloino, G. Zheng, J. L. Sonnenberg, M. Hada, 
 M. Ehara, K. Toyota, R. Fukuda, J. Hasegawa, M. Ishida, T. Nakajima, 
 Y. Honda, O. Kitao, H. Nakai, T. Vreven, J. A. Montgomery, Jr., 
 J. E. Peralta, F. Ogliaro, M. Bearpark, J. J. Heyd, E. Brothers, 
 K. N. Kudin, V. N. Staroverov, R. Kobayashi, J. Normand, 
 K. Raghavachari, A. Rendell, J. C. Burant, S. S. Iyengar, J. Tomasi, 
 M. Cossi, N. Rega, J. M. Millam, M. Klene, J. E. Knox, J. B. Cross, 
 V. Bakken, C. Adamo, J. Jaramillo, R. Gomperts, R. E. Stratmann, 
 O. Yazyev, A. J. Austin, R. Cammi, C. Pomelli, J. W. Ochterski, 
 R. L. Martin, K. Morokuma, V. G. Zakrzewski, G. A. Voth, 
 P. Salvador, J. J. Dannenberg, S. Dapprich, A. D. Daniels, 
 O. Farkas, J. B. Foresman, J. V. Ortiz, J. Cioslowski, 
 and D. J. Fox, Gaussian, Inc., Wallingford CT, 2009.
 
 ******************************************
 Gaussian 09:  EM64L-G09RevA.02 11-Jun-2009
                23-Nov-2022 
 ******************************************
 %chk=/home/matheusmaximo/Gaussian/NH2/1.chk
 ---------------------------------------------------------------------
 # opt=tight freq cam-b3lyp/gen geom=connectivity scf=qc int=ultrafine
 ---------------------------------------------------------------------
 1/7=10,14=-1,18=20,19=15,26=3,38=1,57=2/1,3;
 2/9=110,12=2,17=6,18=5,40=1/2;
 3/5=7,11=2,16=1,25=1,30=1,71=1,74=-40,75=-5/1,2,3;
 4//1;
 5/5=2,8=3,38=5/8;
 6/7=2,8=2,9=2,10=2,28=1/1;
 7//1,2,3,16;
 1/7=10,14=-1,18=20,19=15/3(2);
 2/9=110/2;
 99//99;
 2/9=110/2;
 3/5=7,6=1,11=2,16=1,25=1,30=1,71=1,74=-40,75=-5,82=7/1,2,3;
 4/5=5,16=3/1;
 5/5=2,8=3,38=5/8;
 7//1,2,3,16;
 1/7=10,14=-1,18=20,19=15/3(-5);
 2/9=110/2;
 6/7=2,8=2,9=2,10=2,19=2,28=1/1;
 99/9=1/99;
 ---------------------------
 NA+NH2 CAM-B3LYP def2-TZVPD
 ---------------------------
 Symbolic Z-matrix:
 Charge =  0 Multiplicity = 1
 C                     0.06289   0.02096   0. 
 C                    -0.25068   0.63467  -1.20439 
 C                    -0.39853  -0.08074  -2.38247 
 C                    -0.19747  -1.4533   -2.34289 
 C                     0.14298  -2.10034  -1.15761 
 C                     0.24363  -1.35571   0.03299 
 H                     0.14449   0.61729   0.90044 
 H                    -0.6507    0.43119  -3.30042 
 H                    -0.28607  -2.03457  -3.25514 
 N                    -0.44203   2.08123  -1.22068 
 O                    -0.74889   2.60626  -2.28931 
 O                    -0.2856    2.69159  -0.16377 
 N                     0.3247   -3.48023  -1.07911 
 H                     0.40784  -3.93366  -1.97997 
 H                     1.08973  -3.74605  -0.4671 
 N                     0.59396  -2.03737   1.2 
 H                     0.51435  -1.47217   2.03598 
 H                     0.08947  -2.91134   1.31151 
 

 GradGradGradGradGradGradGradGradGradGradGradGradGradGradGradGradGradGrad
 Berny optimization.
 Initialization pass.
                           ----------------------------
                           !    Initial Parameters    !
                           ! (Angstroms and Degrees)  !
 --------------------------                            --------------------------
 ! Name  Definition              Value          Derivative Info.                !
 --------------------------------------------------------------------------------
 ! R1    R(1,2)                  1.3876         estimate D2E/DX2                !
 ! R2    R(1,6)                  1.3889         estimate D2E/DX2                !
 ! R3    R(1,7)                  1.0831         estimate D2E/DX2                !
 ! R4    R(2,3)                  1.3862         estimate D2E/DX2                !
 ! R5    R(2,10)                 1.4593         estimate D2E/DX2                !
 ! R6    R(3,4)                  1.3878         estimate D2E/DX2                !
 ! R7    R(3,8)                  1.0809         estimate D2E/DX2                !
 ! R8    R(4,5)                  1.3926         estimate D2E/DX2                !
 ! R9    R(4,9)                  1.0853         estimate D2E/DX2                !
 ! R10   R(5,6)                  1.4079         estimate D2E/DX2                !
 ! R11   R(5,13)                 1.394          estimate D2E/DX2                !
 ! R12   R(6,16)                 1.3962         estimate D2E/DX2                !
 ! R13   R(10,11)                1.2295         estimate D2E/DX2                !
 ! R14   R(10,12)                1.2305         estimate D2E/DX2                !
 ! R15   R(13,14)                1.012          estimate D2E/DX2                !
 ! R16   R(13,15)                1.0151         estimate D2E/DX2                !
 ! R17   R(16,17)                1.0123         estimate D2E/DX2                !
 ! R18   R(16,18)                1.0153         estimate D2E/DX2                !
 ! A1    A(2,1,6)              119.236          estimate D2E/DX2                !
 ! A2    A(2,1,7)              119.6764         estimate D2E/DX2                !
 ! A3    A(6,1,7)              121.0775         estimate D2E/DX2                !
 ! A4    A(1,2,3)              122.2412         estimate D2E/DX2                !
 ! A5    A(1,2,10)             118.5383         estimate D2E/DX2                !
 ! A6    A(3,2,10)             119.218          estimate D2E/DX2                !
 ! A7    A(2,3,4)              118.0828         estimate D2E/DX2                !
 ! A8    A(2,3,8)              120.1462         estimate D2E/DX2                !
 ! A9    A(4,3,8)              121.7663         estimate D2E/DX2                !
 ! A10   A(3,4,5)              121.2794         estimate D2E/DX2                !
 ! A11   A(3,4,9)              119.5974         estimate D2E/DX2                !
 ! A12   A(5,4,9)              119.1109         estimate D2E/DX2                !
 ! A13   A(4,5,6)              119.4386         estimate D2E/DX2                !
 ! A14   A(4,5,13)             122.6632         estimate D2E/DX2                !
 ! A15   A(6,5,13)             117.8139         estimate D2E/DX2                !
 ! A16   A(1,6,5)              119.6607         estimate D2E/DX2                !
 ! A17   A(1,6,16)             122.4424         estimate D2E/DX2                !
 ! A18   A(5,6,16)             117.812          estimate D2E/DX2                !
 ! A19   A(2,10,11)            117.7571         estimate D2E/DX2                !
 ! A20   A(2,10,12)            117.7402         estimate D2E/DX2                !
 ! A21   A(11,10,12)           124.5027         estimate D2E/DX2                !
 ! A22   A(5,13,14)            113.8354         estimate D2E/DX2                !
 ! A23   A(5,13,15)            113.0414         estimate D2E/DX2                !
 ! A24   A(14,13,15)           110.9438         estimate D2E/DX2                !
 ! A25   A(6,16,17)            113.4509         estimate D2E/DX2                !
 ! A26   A(6,16,18)            112.7932         estimate D2E/DX2                !
 ! A27   A(17,16,18)           110.5402         estimate D2E/DX2                !
 ! D1    D(6,1,2,3)              0.3661         estimate D2E/DX2                !
 ! D2    D(6,1,2,10)           179.7809         estimate D2E/DX2                !
 ! D3    D(7,1,2,3)           -178.492          estimate D2E/DX2                !
 ! D4    D(7,1,2,10)             0.9229         estimate D2E/DX2                !
 ! D5    D(2,1,6,5)              1.7453         estimate D2E/DX2                !
 ! D6    D(2,1,6,16)           178.3196         estimate D2E/DX2                !
 ! D7    D(7,1,6,5)           -179.4131         estimate D2E/DX2                !
 ! D8    D(7,1,6,16)            -2.8388         estimate D2E/DX2                !
 ! D9    D(1,2,3,4)             -1.2515         estimate D2E/DX2                !
 ! D10   D(1,2,3,8)            179.5318         estimate D2E/DX2                !
 ! D11   D(10,2,3,4)           179.3375         estimate D2E/DX2                !
 ! D12   D(10,2,3,8)             0.1208         estimate D2E/DX2                !
 ! D13   D(1,2,10,11)         -178.4013         estimate D2E/DX2                !
 ! D14   D(1,2,10,12)            1.5743         estimate D2E/DX2                !
 ! D15   D(3,2,10,11)            1.0316         estimate D2E/DX2                !
 ! D16   D(3,2,10,12)         -178.9928         estimate D2E/DX2                !
 ! D17   D(2,3,4,5)              0.0101         estimate D2E/DX2                !
 ! D18   D(2,3,4,9)           -178.7017         estimate D2E/DX2                !
 ! D19   D(8,3,4,5)            179.2134         estimate D2E/DX2                !
 ! D20   D(8,3,4,9)              0.5015         estimate D2E/DX2                !
 ! D21   D(3,4,5,6)              2.0622         estimate D2E/DX2                !
 ! D22   D(3,4,5,13)           178.6479         estimate D2E/DX2                !
 ! D23   D(9,4,5,6)           -179.2198         estimate D2E/DX2                !
 ! D24   D(9,4,5,13)            -2.6341         estimate D2E/DX2                !
 ! D25   D(4,5,6,1)             -2.9356         estimate D2E/DX2                !
 ! D26   D(4,5,6,16)          -179.6671         estimate D2E/DX2                !
 ! D27   D(13,5,6,1)          -179.686          estimate D2E/DX2                !
 ! D28   D(13,5,6,16)            3.5825         estimate D2E/DX2                !
 ! D29   D(4,5,13,14)           13.9028         estimate D2E/DX2                !
 ! D30   D(4,5,13,15)          141.6781         estimate D2E/DX2                !
 ! D31   D(6,5,13,14)         -169.459          estimate D2E/DX2                !
 ! D32   D(6,5,13,15)          -41.6837         estimate D2E/DX2                !
 ! D33   D(1,6,16,17)           11.9095         estimate D2E/DX2                !
 ! D34   D(1,6,16,18)          138.5749         estimate D2E/DX2                !
 ! D35   D(5,6,16,17)         -171.456          estimate D2E/DX2                !
 ! D36   D(5,6,16,18)          -44.7906         estimate D2E/DX2                !
 --------------------------------------------------------------------------------
 Trust Radius=3.00D-01 FncErr=1.00D-07 GrdErr=1.00D-06
 Number of steps in this run=  91 maximum allowed number of steps= 108.
 GradGradGradGradGradGradGradGradGradGradGradGradGradGradGradGradGradGrad

                          Input orientation:                          
 ---------------------------------------------------------------------
 Center     Atomic      Atomic             Coordinates (Angstroms)
 Number     Number       Type             X           Y           Z
 ---------------------------------------------------------------------
      1          6           0        0.062893    0.020964    0.000000
      2          6           0       -0.250677    0.634674   -1.204390
      3          6           0       -0.398527   -0.080736   -2.382470
      4          6           0       -0.197467   -1.453296   -2.342890
      5          6           0        0.142983   -2.100336   -1.157610
      6          6           0        0.243633   -1.355706    0.032990
      7          1           0        0.144493    0.617294    0.900440
      8          1           0       -0.650697    0.431194   -3.300420
      9          1           0       -0.286067   -2.034566   -3.255140
     10          7           0       -0.442027    2.081234   -1.220680
     11          8           0       -0.748887    2.606264   -2.289310
     12          8           0       -0.285597    2.691594   -0.163770
     13          7           0        0.324703   -3.480226   -1.079110
     14          1           0        0.407843   -3.933656   -1.979970
     15          1           0        1.089733   -3.746046   -0.467100
     16          7           0        0.593963   -2.037366    1.200000
     17          1           0        0.514353   -1.472166    2.035980
     18          1           0        0.089473   -2.911336    1.311510
 ---------------------------------------------------------------------
                    Distance matrix (angstroms):
                    1          2          3          4          5
     1  C    0.000000
     2  C    1.387632   0.000000
     3  C    2.428871   1.386198   0.000000
     4  C    2.780353   2.378788   1.387773   0.000000
     5  C    2.417931   2.763591   2.423283   1.392643   0.000000
     6  C    1.388876   2.395217   2.805774   2.418450   1.407882
     7  H    1.083079   2.141675   3.399943   3.863091   3.408971
     8  H    3.401510   2.143540   1.080877   2.161847   3.410309
     9  H    3.865606   3.366255   2.142814   1.085322   2.141971
    10  N    2.447390   1.459252   2.454743   3.716459   4.222765
    11  O    3.547352   2.304871   2.711347   4.097190   4.922221
    12  O    2.698246   2.305435   3.552632   4.683636   4.912636
    13  N    3.673058   4.156821   3.711919   2.445045   1.394016
    14  H    4.436022   4.680258   3.956922   2.578817   2.026694
    15  H    3.932295   4.640151   4.395231   3.229888   2.020273
    16  N    2.441057   3.692466   4.200896   3.676897   2.401182
    17  H    2.564852   3.940056   4.721454   4.436389   3.275901
    18  H    3.212343   4.361151   4.679309   3.944978   2.599450
                    6          7          8          9         10
     6  C    0.000000
     7  H    2.157551   0.000000
     8  H    3.886446   4.279508   0.000000
     9  H    3.399005   4.948393   2.492986   0.000000
    10  N    3.722147   2.643156   2.662986   4.593818   0.000000
    11  O    4.698444   3.863759   2.400607   4.762807   1.229549
    12  O    4.086494   2.370705   3.883462   5.647403   1.230475
    13  N    2.399359   4.554203   4.602698   2.682924   5.615848
    14  H    3.274874   5.392334   4.681454   2.390421   6.121903
    15  H    2.584512   4.669302   5.339113   3.548966   6.072179
    16  N    1.396175   2.709055   5.281737   4.541226   4.888336
    17  H    2.024555   2.406676   5.784227   5.380791   4.913975
    18  H    2.019496   3.552919   5.743715   4.665195   5.623187
                   11         12         13         14         15
    11  O    0.000000
    12  O    2.177117   0.000000
    13  N    6.297820   6.269105   0.000000
    14  H    6.648629   6.904591   1.011958   0.000000
    15  H    6.859505   6.589898   1.015129   1.670014   0.000000
    16  N    5.961697   4.999656   2.710846   3.707124   2.438155
    17  H    6.077623   4.776580   3.711072   4.711489   3.430306
    18  H    6.641736   5.806027   2.468610   3.461263   2.204703
                   16         17         18
    16  N    0.000000
    17  H    1.012251   0.000000
    18  H    1.015268   1.666310   0.000000
 Stoichiometry    C6H7N3O2
 Framework group  C1[X(C6H7N3O2)]
 Deg. of freedom    48
 Full point group                 C1      NOp   1
 Largest Abelian subgroup         C1      NOp   1
 Largest concise Abelian subgroup C1      NOp   1
                         Standard orientation:                         
 ---------------------------------------------------------------------
 Center     Atomic      Atomic             Coordinates (Angstroms)
 Number     Number       Type             X           Y           Z
 ---------------------------------------------------------------------
      1          6           0       -0.088366    0.977072   -0.003209
      2          6           0       -0.944260   -0.115150    0.001149
      3          6           0       -0.477678   -1.420202    0.027314
      4          6           0        0.895132   -1.623392    0.022937
      5          6           0        1.784548   -0.552167   -0.006601
      6          6           0        1.283923    0.763575    0.011564
      7          1           0       -0.498282    1.979575    0.000737
      8          1           0       -1.175094   -2.245913    0.037539
      9          1           0        1.287225   -2.635413    0.021643
     10          7           0       -2.383281    0.126754   -0.009641
     11          8           0       -3.128518   -0.850604    0.024741
     12          8           0       -2.767373    1.294976   -0.052062
     13          7           0        3.167985   -0.722095    0.015914
     14          1           0        3.466438   -1.671432   -0.167780
     15          1           0        3.658765   -0.065211   -0.582523
     16          7           0        2.205436    1.811758   -0.026268
     17          1           0        1.787848    2.720999    0.127198
     18          1           0        2.989463    1.669085    0.602790
 ---------------------------------------------------------------------
 Rotational constants (GHZ):      2.5276799      0.7329579      0.5692559
 General basis read from cards:  (5D, 7F)
 There are   476 symmetry adapted basis functions of A   symmetry.
 Integral buffers will be    131072 words long.
 Raffenetti 2 integral format.
 Two-electron integral symmetry is turned on.
   476 basis functions,   721 primitive gaussians,   542 cartesian basis functions
    40 alpha electrons       40 beta electrons
       nuclear repulsion energy       593.7687999879 Hartrees.
 NAtoms=   18 NActive=   18 NUniq=   18 SFac= 7.50D-01 NAtFMM=   80 NAOKFM=F Big=F
 One-electron integrals computed using PRISM.
 NBasis=   476 RedAO= T  NBF=   476
 NBsUse=   474 1.00D-06 NBFU=   474
 Harris functional with IExCor=20419 diagonalized for initial guess.
 ExpMin= 4.85D-02 ExpMax= 2.70D+04 ExpMxC= 9.22D+02 IAcc=3 IRadAn=         5 AccDes= 0.00D+00
 HarFok:  IExCor=20419 AccDes= 0.00D+00 IRadAn=         5 IDoV= 1
 ScaDFX=  1.000000  1.000000  1.000000  1.000000
 FoFCou: FMM=F IPFlag=           0 FMFlag=      100000 FMFlg1=           0
         NFxFlg=           0 DoJE=T BraDBF=F KetDBF=T FulRan=T
         Omega=  0.000000  0.000000  1.000000  0.000000  0.000000 ICntrl=     500 IOpCl=  0
         NMat0=    1 NMatS0=    1 NMatT0=    0 NMatD0=    1 NMtDS0=    0 NMtDT0=    0
         I1Cent=           4 NGrid=           0.
 Petite list used in FoFCou.
 Initial guess orbital symmetries:
       Occupied  (A) (A) (A) (A) (A) (A) (A) (A) (A) (A) (A) (A)
                 (A) (A) (A) (A) (A) (A) (A) (A) (A) (A) (A) (A)
                 (A) (A) (A) (A) (A) (A) (A) (A) (A) (A) (A) (A)
                 (A) (A) (A) (A)
       Virtual   (A) (A) (A) (A) (A) (A) (A) (A) (A) (A) (A) (A)
                 (A) (A) (A) (A) (A) (A) (A) (A) (A) (A) (A) (A)
                 (A) (A) (A) (A) (A) (A) (A) (A) (A) (A) (A) (A)
                 (A) (A) (A) (A) (A) (A) (A) (A) (A) (A) (A) (A)
                 (A) (A) (A) (A) (A) (A) (A) (A) (A) (A) (A) (A)
                 (A) (A) (A) (A) (A) (A) (A) (A) (A) (A) (A) (A)
                 (A) (A) (A) (A) (A) (A) (A) (A) (A) (A) (A) (A)
                 (A) (A) (A) (A) (A) (A) (A) (A) (A) (A) (A) (A)
                 (A) (A) (A) (A) (A) (A) (A) (A) (A) (A) (A) (A)
                 (A) (A) (A) (A) (A) (A) (A) (A) (A) (A) (A) (A)
                 (A) (A) (A) (A) (A) (A) (A) (A) (A) (A) (A) (A)
                 (A) (A) (A) (A) (A) (A) (A) (A) (A) (A) (A) (A)
                 (A) (A) (A) (A) (A) (A) (A) (A) (A) (A) (A) (A)
                 (A) (A) (A) (A) (A) (A) (A) (A) (A) (A) (A) (A)
                 (A) (A) (A) (A) (A) (A) (A) (A) (A) (A) (A) (A)
                 (A) (A) (A) (A) (A) (A) (A) (A) (A) (A) (A) (A)
                 (A) (A) (A) (A) (A) (A) (A) (A) (A) (A) (A) (A)
                 (A) (A) (A) (A) (A) (A) (A) (A) (A) (A) (A) (A)
                 (A) (A) (A) (A) (A) (A) (A) (A) (A) (A) (A) (A)
                 (A) (A) (A) (A) (A) (A) (A) (A) (A) (A) (A) (A)
                 (A) (A) (A) (A) (A) (A) (A) (A) (A) (A) (A) (A)
                 (A) (A) (A) (A) (A) (A) (A) (A) (A) (A) (A) (A)
                 (A) (A) (A) (A) (A) (A) (A) (A) (A) (A) (A) (A)
                 (A) (A) (A) (A) (A) (A) (A) (A) (A) (A) (A) (A)
                 (A) (A) (A) (A) (A) (A) (A) (A) (A) (A) (A) (A)
                 (A) (A) (A) (A) (A) (A) (A) (A) (A) (A) (A) (A)
                 (A) (A) (A) (A) (A) (A) (A) (A) (A) (A) (A) (A)
                 (A) (A) (A) (A) (A) (A) (A) (A) (A) (A) (A) (A)
                 (A) (A) (A) (A) (A) (A) (A) (A) (A) (A) (A) (A)
                 (A) (A) (A) (A) (A) (A) (A) (A) (A) (A) (A) (A)
                 (A) (A) (A) (A) (A) (A) (A) (A) (A) (A) (A) (A)
                 (A) (A) (A) (A) (A) (A) (A) (A) (A) (A) (A) (A)
                 (A) (A) (A) (A) (A) (A) (A) (A) (A) (A) (A) (A)
                 (A) (A) (A) (A) (A) (A) (A) (A) (A) (A) (A) (A)
                 (A) (A) (A) (A) (A) (A) (A) (A) (A) (A) (A) (A)
                 (A) (A) (A) (A) (A) (A) (A) (A) (A) (A) (A) (A)
                 (A) (A)
 The electronic state of the initial guess is 1-A.
 FoFJK:  IHMeth= 1 ICntrl=     0 DoSepK=T KAlg= 1 I1Cent= 0 FoldK=F
 Gradient too large for Newton-Raphson -- use scaled steepest descent instead.
 FoFJK:  IHMeth= 1 ICntrl=     0 DoSepK=T KAlg= 1 I1Cent= 0 FoldK=F
 FoFJK:  IHMeth= 1 ICntrl=     0 DoSepK=T KAlg= 1 I1Cent= 0 FoldK=F
 FoFJK:  IHMeth= 1 ICntrl=     0 DoSepK=T KAlg= 1 I1Cent= 0 FoldK=F
 FoFJK:  IHMeth= 1 ICntrl=     0 DoSepK=T KAlg= 1 I1Cent= 0 FoldK=F
 Gradient too large for Newton-Raphson -- use scaled steepest descent instead.
 FoFJK:  IHMeth= 1 ICntrl=     0 DoSepK=T KAlg= 1 I1Cent= 0 FoldK=F
 FoFJK:  IHMeth= 1 ICntrl=     0 DoSepK=T KAlg= 1 I1Cent= 0 FoldK=F
 FoFJK:  IHMeth= 1 ICntrl=     0 DoSepK=T KAlg= 1 I1Cent= 0 FoldK=F
 FoFJK:  IHMeth= 1 ICntrl=     0 DoSepK=T KAlg= 1 I1Cent= 0 FoldK=F
 FoFJK:  IHMeth= 1 ICntrl=     0 DoSepK=T KAlg= 1 I1Cent= 0 FoldK=F
 Gradient too large for Newton-Raphson -- use scaled steepest descent instead.
 FoFJK:  IHMeth= 1 ICntrl=     0 DoSepK=T KAlg= 1 I1Cent= 0 FoldK=F
 FoFJK:  IHMeth= 1 ICntrl=     0 DoSepK=T KAlg= 1 I1Cent= 0 FoldK=F
 FoFJK:  IHMeth= 1 ICntrl=     0 DoSepK=T KAlg= 1 I1Cent= 0 FoldK=F
 Gradient too large for Newton-Raphson -- use scaled steepest descent instead.
 FoFJK:  IHMeth= 1 ICntrl=     0 DoSepK=T KAlg= 1 I1Cent= 0 FoldK=F
 FoFJK:  IHMeth= 1 ICntrl=     0 DoSepK=T KAlg= 1 I1Cent= 0 FoldK=F
 FoFJK:  IHMeth= 1 ICntrl=     0 DoSepK=T KAlg= 1 I1Cent= 0 FoldK=F
 FoFJK:  IHMeth= 1 ICntrl=     0 DoSepK=T KAlg= 1 I1Cent= 0 FoldK=F
 Gradient too large for Newton-Raphson -- use scaled steepest descent instead.
 FoFJK:  IHMeth= 1 ICntrl=     0 DoSepK=T KAlg= 1 I1Cent= 0 FoldK=F
 FoFJK:  IHMeth= 1 ICntrl=     0 DoSepK=T KAlg= 1 I1Cent= 0 FoldK=F
 FoFJK:  IHMeth= 1 ICntrl=     0 DoSepK=T KAlg= 1 I1Cent= 0 FoldK=F
 Gradient too large for Newton-Raphson -- use scaled steepest descent instead.
 FoFJK:  IHMeth= 1 ICntrl=     0 DoSepK=T KAlg= 1 I1Cent= 0 FoldK=F
 FoFJK:  IHMeth= 1 ICntrl=     0 DoSepK=T KAlg= 1 I1Cent= 0 FoldK=F
 FoFJK:  IHMeth= 1 ICntrl=     0 DoSepK=T KAlg= 1 I1Cent= 0 FoldK=F
 FoFJK:  IHMeth= 1 ICntrl=     0 DoSepK=T KAlg= 1 I1Cent= 0 FoldK=F
 LinEq1:  Iter=  0 NonCon=     1 RMS=5.42D-05 Max=3.36D-03
 AX will form     1 AO Fock derivatives at one time.
 FoFJK:  IHMeth= 1 ICntrl=     0 DoSepK=T KAlg= 1 I1Cent= 0 FoldK=F
 LinEq1:  Iter=  1 NonCon=     1 RMS=6.50D-05 Max=4.37D-03
 FoFJK:  IHMeth= 1 ICntrl=     0 DoSepK=T KAlg= 1 I1Cent= 0 FoldK=F
 LinEq1:  Iter=  2 NonCon=     1 RMS=2.03D-05 Max=1.10D-03
 FoFJK:  IHMeth= 1 ICntrl=     0 DoSepK=T KAlg= 1 I1Cent= 0 FoldK=F
 LinEq1:  Iter=  3 NonCon=     1 RMS=1.06D-05 Max=4.41D-04
 FoFJK:  IHMeth= 1 ICntrl=     0 DoSepK=T KAlg= 1 I1Cent= 0 FoldK=F
 LinEq1:  Iter=  4 NonCon=     1 RMS=1.36D-06 Max=6.33D-05
 FoFJK:  IHMeth= 1 ICntrl=     0 DoSepK=T KAlg= 1 I1Cent= 0 FoldK=F
 LinEq1:  Iter=  5 NonCon=     1 RMS=7.98D-07 Max=3.99D-05
 FoFJK:  IHMeth= 1 ICntrl=     0 DoSepK=T KAlg= 1 I1Cent= 0 FoldK=F
 LinEq1:  Iter=  6 NonCon=     1 RMS=2.69D-07 Max=1.13D-05
 FoFJK:  IHMeth= 1 ICntrl=     0 DoSepK=T KAlg= 1 I1Cent= 0 FoldK=F
 LinEq1:  Iter=  7 NonCon=     1 RMS=1.42D-07 Max=3.31D-06
 FoFJK:  IHMeth= 1 ICntrl=     0 DoSepK=T KAlg= 1 I1Cent= 0 FoldK=F
 LinEq1:  Iter=  8 NonCon=     1 RMS=4.06D-08 Max=1.90D-06
 FoFJK:  IHMeth= 1 ICntrl=     0 DoSepK=T KAlg= 1 I1Cent= 0 FoldK=F
 LinEq1:  Iter=  9 NonCon=     1 RMS=2.69D-08 Max=1.14D-06
 FoFJK:  IHMeth= 1 ICntrl=     0 DoSepK=T KAlg= 1 I1Cent= 0 FoldK=F
 LinEq1:  Iter= 10 NonCon=     1 RMS=9.39D-09 Max=3.80D-07
 FoFJK:  IHMeth= 1 ICntrl=     0 DoSepK=T KAlg= 1 I1Cent= 0 FoldK=F
 LinEq1:  Iter= 11 NonCon=     0 RMS=3.90D-09 Max=1.46D-07
 Linear equations converged to 1.863D-08 1.863D-07 after    11 iterations.
 FoFJK:  IHMeth= 1 ICntrl=     0 DoSepK=T KAlg= 1 I1Cent= 0 FoldK=F
 FoFJK:  IHMeth= 1 ICntrl=     0 DoSepK=T KAlg= 1 I1Cent= 0 FoldK=F
 FoFJK:  IHMeth= 1 ICntrl=     0 DoSepK=T KAlg= 1 I1Cent= 0 FoldK=F
 LinEq1:  Iter=  0 NonCon=     1 RMS=2.31D-07 Max=9.53D-06
 FoFJK:  IHMeth= 1 ICntrl=     0 DoSepK=T KAlg= 1 I1Cent= 0 FoldK=F
 LinEq1:  Iter=  1 NonCon=     1 RMS=1.21D-07 Max=5.83D-06
 FoFJK:  IHMeth= 1 ICntrl=     0 DoSepK=T KAlg= 1 I1Cent= 0 FoldK=F
 LinEq1:  Iter=  2 NonCon=     1 RMS=4.32D-08 Max=2.98D-06
 FoFJK:  IHMeth= 1 ICntrl=     0 DoSepK=T KAlg= 1 I1Cent= 0 FoldK=F
 LinEq1:  Iter=  3 NonCon=     1 RMS=3.14D-08 Max=8.06D-07
 FoFJK:  IHMeth= 1 ICntrl=     0 DoSepK=T KAlg= 1 I1Cent= 0 FoldK=F
 LinEq1:  Iter=  4 NonCon=     1 RMS=2.39D-08 Max=1.52D-06
 FoFJK:  IHMeth= 1 ICntrl=     0 DoSepK=T KAlg= 1 I1Cent= 0 FoldK=F
 LinEq1:  Iter=  5 NonCon=     1 RMS=1.37D-08 Max=6.80D-07
 FoFJK:  IHMeth= 1 ICntrl=     0 DoSepK=T KAlg= 1 I1Cent= 0 FoldK=F
 LinEq1:  Iter=  6 NonCon=     1 RMS=8.67D-09 Max=4.77D-07
 FoFJK:  IHMeth= 1 ICntrl=     0 DoSepK=T KAlg= 1 I1Cent= 0 FoldK=F
 LinEq1:  Iter=  7 NonCon=     1 RMS=3.99D-09 Max=1.61D-07
 FoFJK:  IHMeth= 1 ICntrl=     0 DoSepK=T KAlg= 1 I1Cent= 0 FoldK=F
 LinEq1:  Iter=  8 NonCon=     1 RMS=2.25D-09 Max=1.24D-07
 FoFJK:  IHMeth= 1 ICntrl=     0 DoSepK=T KAlg= 1 I1Cent= 0 FoldK=F
 LinEq1:  Iter=  9 NonCon=     1 RMS=9.81D-10 Max=3.76D-08
 FoFJK:  IHMeth= 1 ICntrl=     0 DoSepK=T KAlg= 1 I1Cent= 0 FoldK=F
 LinEq1:  Iter= 10 NonCon=     1 RMS=5.74D-10 Max=1.90D-08
 FoFJK:  IHMeth= 1 ICntrl=     0 DoSepK=T KAlg= 1 I1Cent= 0 FoldK=F
 LinEq1:  Iter= 11 NonCon=     1 RMS=2.32D-10 Max=7.66D-09
 FoFJK:  IHMeth= 1 ICntrl=     0 DoSepK=T KAlg= 1 I1Cent= 0 FoldK=F
 LinEq1:  Iter= 12 NonCon=     0 RMS=8.99D-11 Max=2.82D-09
 Linear equations converged to 3.310D-10 3.310D-09 after    12 iterations.
 FoFJK:  IHMeth= 1 ICntrl=     0 DoSepK=T KAlg= 1 I1Cent= 0 FoldK=F
 SCF Done:  E(RCAM-B3LYP) =  -547.447100742     a.u. after    9 cycles
            Convg  =    0.2682D-08                    51 Fock formations.
              S**2 =  0.0000                  -V/T =  2.0043

 **********************************************************************

            Population analysis using the SCF density.

 **********************************************************************

 Orbital symmetries:
       Occupied  (A) (A) (A) (A) (A) (A) (A) (A) (A) (A) (A) (A)
                 (A) (A) (A) (A) (A) (A) (A) (A) (A) (A) (A) (A)
                 (A) (A) (A) (A) (A) (A) (A) (A) (A) (A) (A) (A)
                 (A) (A) (A) (A)
       Virtual   (A) (A) (A) (A) (A) (A) (A) (A) (A) (A) (A) (A)
                 (A) (A) (A) (A) (A) (A) (A) (A) (A) (A) (A) (A)
                 (A) (A) (A) (A) (A) (A) (A) (A) (A) (A) (A) (A)
                 (A) (A) (A) (A) (A) (A) (A) (A) (A) (A) (A) (A)
                 (A) (A) (A) (A) (A) (A) (A) (A) (A) (A) (A) (A)
                 (A) (A) (A) (A) (A) (A) (A) (A) (A) (A) (A) (A)
                 (A) (A) (A) (A) (A) (A) (A) (A) (A) (A) (A) (A)
                 (A) (A) (A) (A) (A) (A) (A) (A) (A) (A) (A) (A)
                 (A) (A) (A) (A) (A) (A) (A) (A) (A) (A) (A) (A)
                 (A) (A) (A) (A) (A) (A) (A) (A) (A) (A) (A) (A)
                 (A) (A) (A) (A) (A) (A) (A) (A) (A) (A) (A) (A)
                 (A) (A) (A) (A) (A) (A) (A) (A) (A) (A) (A) (A)
                 (A) (A) (A) (A) (A) (A) (A) (A) (A) (A) (A) (A)
                 (A) (A) (A) (A) (A) (A) (A) (A) (A) (A) (A) (A)
                 (A) (A) (A) (A) (A) (A) (A) (A) (A) (A) (A) (A)
                 (A) (A) (A) (A) (A) (A) (A) (A) (A) (A) (A) (A)
                 (A) (A) (A) (A) (A) (A) (A) (A) (A) (A) (A) (A)
                 (A) (A) (A) (A) (A) (A) (A) (A) (A) (A) (A) (A)
                 (A) (A) (A) (A) (A) (A) (A) (A) (A) (A) (A) (A)
                 (A) (A) (A) (A) (A) (A) (A) (A) (A) (A) (A) (A)
                 (A) (A) (A) (A) (A) (A) (A) (A) (A) (A) (A) (A)
                 (A) (A) (A) (A) (A) (A) (A) (A) (A) (A) (A) (A)
                 (A) (A) (A) (A) (A) (A) (A) (A) (A) (A) (A) (A)
                 (A) (A) (A) (A) (A) (A) (A) (A) (A) (A) (A) (A)
                 (A) (A) (A) (A) (A) (A) (A) (A) (A) (A) (A) (A)
                 (A) (A) (A) (A) (A) (A) (A) (A) (A) (A) (A) (A)
                 (A) (A) (A) (A) (A) (A) (A) (A) (A) (A) (A) (A)
                 (A) (A) (A) (A) (A) (A) (A) (A) (A) (A) (A) (A)
                 (A) (A) (A) (A) (A) (A) (A) (A) (A) (A) (A) (A)
                 (A) (A) (A) (A) (A) (A) (A) (A) (A) (A) (A) (A)
                 (A) (A) (A) (A) (A) (A) (A) (A) (A) (A) (A) (A)
                 (A) (A) (A) (A) (A) (A) (A) (A) (A) (A) (A) (A)
                 (A) (A) (A) (A) (A) (A) (A) (A) (A) (A) (A) (A)
                 (A) (A) (A) (A) (A) (A) (A) (A) (A) (A) (A) (A)
                 (A) (A) (A) (A) (A) (A) (A) (A) (A) (A) (A) (A)
                 (A) (A) (A) (A) (A) (A) (A) (A) (A) (A) (A) (A)
                 (A) (A)
 The electronic state is 1-A.
 Alpha  occ. eigenvalues --  -19.22743 -19.22733 -14.62711 -14.42084 -14.41501
 Alpha  occ. eigenvalues --  -10.31289 -10.30772 -10.30388 -10.27144 -10.26999
 Alpha  occ. eigenvalues --  -10.26830  -1.30567  -1.12945  -1.05097  -1.00078
 Alpha  occ. eigenvalues --   -0.95956  -0.87232  -0.83917  -0.77089  -0.72199
 Alpha  occ. eigenvalues --   -0.67348  -0.63817  -0.62752  -0.60739  -0.60137
 Alpha  occ. eigenvalues --   -0.58091  -0.57708  -0.55866  -0.52172  -0.52029
 Alpha  occ. eigenvalues --   -0.50314  -0.47597  -0.44428  -0.41297  -0.40525
 Alpha  occ. eigenvalues --   -0.37795  -0.37441  -0.36144  -0.31560  -0.27951
 Alpha virt. eigenvalues --   -0.04404   0.01548   0.01763   0.03503   0.04292
 Alpha virt. eigenvalues --    0.05729   0.06434   0.06824   0.07432   0.09351
 Alpha virt. eigenvalues --    0.09925   0.10466   0.10953   0.11244   0.12497
 Alpha virt. eigenvalues --    0.12926   0.14143   0.14464   0.14971   0.15839
 Alpha virt. eigenvalues --    0.15990   0.17462   0.18560   0.19432   0.19469
 Alpha virt. eigenvalues --    0.20559   0.20841   0.21159   0.21912   0.22802
 Alpha virt. eigenvalues --    0.23015   0.23671   0.24015   0.24387   0.25338
 Alpha virt. eigenvalues --    0.25953   0.26365   0.26823   0.27265   0.27408
 Alpha virt. eigenvalues --    0.27692   0.28232   0.29057   0.29483   0.30019
 Alpha virt. eigenvalues --    0.30221   0.30669   0.31485   0.31726   0.32552
 Alpha virt. eigenvalues --    0.32949   0.33579   0.33683   0.34022   0.35902
 Alpha virt. eigenvalues --    0.36273   0.37147   0.37356   0.37750   0.38862
 Alpha virt. eigenvalues --    0.39140   0.39777   0.40285   0.40584   0.41134
 Alpha virt. eigenvalues --    0.41685   0.42152   0.42757   0.43034   0.44434
 Alpha virt. eigenvalues --    0.44519   0.45312   0.45981   0.46190   0.47119
 Alpha virt. eigenvalues --    0.47744   0.48134   0.48740   0.49188   0.49647
 Alpha virt. eigenvalues --    0.50448   0.50713   0.50857   0.51342   0.52829
 Alpha virt. eigenvalues --    0.53187   0.53894   0.54680   0.55649   0.56245
 Alpha virt. eigenvalues --    0.56552   0.56696   0.57297   0.57651   0.58892
 Alpha virt. eigenvalues --    0.59501   0.60022   0.60674   0.61780   0.61947
 Alpha virt. eigenvalues --    0.62662   0.62992   0.63532   0.64779   0.64991
 Alpha virt. eigenvalues --    0.65275   0.67043   0.67386   0.67914   0.68074
 Alpha virt. eigenvalues --    0.69295   0.69623   0.70818   0.71465   0.71846
 Alpha virt. eigenvalues --    0.72612   0.73317   0.73527   0.74629   0.74936
 Alpha virt. eigenvalues --    0.75888   0.76357   0.77112   0.77630   0.78351
 Alpha virt. eigenvalues --    0.78575   0.79245   0.79715   0.80401   0.81333
 Alpha virt. eigenvalues --    0.81668   0.82113   0.83275   0.83920   0.83995
 Alpha virt. eigenvalues --    0.85653   0.86095   0.86353   0.87942   0.88397
 Alpha virt. eigenvalues --    0.89101   0.89896   0.91859   0.92214   0.92698
 Alpha virt. eigenvalues --    0.93517   0.95933   0.96603   0.97909   0.98886
 Alpha virt. eigenvalues --    0.99482   1.01128   1.01714   1.02625   1.03592
 Alpha virt. eigenvalues --    1.03812   1.04860   1.05413   1.06284   1.08805
 Alpha virt. eigenvalues --    1.09605   1.11036   1.12608   1.13882   1.14388
 Alpha virt. eigenvalues --    1.16651   1.18518   1.20805   1.21288   1.23064
 Alpha virt. eigenvalues --    1.23828   1.26387   1.29198   1.30044   1.32852
 Alpha virt. eigenvalues --    1.33602   1.35056   1.35979   1.36521   1.38754
 Alpha virt. eigenvalues --    1.41400   1.43928   1.45337   1.46456   1.48164
 Alpha virt. eigenvalues --    1.48693   1.50934   1.51247   1.54020   1.55583
 Alpha virt. eigenvalues --    1.56658   1.57326   1.59575   1.60049   1.61474
 Alpha virt. eigenvalues --    1.63040   1.66329   1.66616   1.70713   1.71935
 Alpha virt. eigenvalues --    1.73698   1.75401   1.77557   1.77777   1.79141
 Alpha virt. eigenvalues --    1.81201   1.81655   1.82474   1.83115   1.83408
 Alpha virt. eigenvalues --    1.86188   1.86574   1.89629   1.90305   1.91550
 Alpha virt. eigenvalues --    1.92881   1.94953   1.96206   1.97341   1.97623
 Alpha virt. eigenvalues --    1.99102   2.00325   2.01701   2.05431   2.05844
 Alpha virt. eigenvalues --    2.09597   2.11087   2.11837   2.12967   2.17915
 Alpha virt. eigenvalues --    2.19531   2.21892   2.24465   2.25761   2.28024
 Alpha virt. eigenvalues --    2.29841   2.31083   2.32527   2.34561   2.35563
 Alpha virt. eigenvalues --    2.37006   2.38444   2.39431   2.40310   2.41940
 Alpha virt. eigenvalues --    2.43217   2.43978   2.44943   2.47658   2.51447
 Alpha virt. eigenvalues --    2.55060   2.58047   2.59717   2.62234   2.63845
 Alpha virt. eigenvalues --    2.66560   2.69080   2.70583   2.71099   2.71956
 Alpha virt. eigenvalues --    2.73330   2.75776   2.78664   2.83931   2.84285
 Alpha virt. eigenvalues --    2.85874   2.86378   2.86819   2.88114   2.90138
 Alpha virt. eigenvalues --    2.90782   2.91981   2.94585   2.95491   2.96975
 Alpha virt. eigenvalues --    2.97668   3.00405   3.01578   3.03215   3.04625
 Alpha virt. eigenvalues --    3.07051   3.09242   3.10467   3.10913   3.12192
 Alpha virt. eigenvalues --    3.12781   3.13388   3.16384   3.17688   3.19581
 Alpha virt. eigenvalues --    3.22167   3.23332   3.24901   3.26904   3.29576
 Alpha virt. eigenvalues --    3.30431   3.31718   3.32865   3.34215   3.36046
 Alpha virt. eigenvalues --    3.39362   3.40111   3.41137   3.42218   3.44178
 Alpha virt. eigenvalues --    3.45239   3.46166   3.47252   3.49292   3.50565
 Alpha virt. eigenvalues --    3.51389   3.52057   3.53199   3.54533   3.56719
 Alpha virt. eigenvalues --    3.58984   3.59697   3.61457   3.62399   3.63001
 Alpha virt. eigenvalues --    3.68116   3.69496   3.72693   3.73202   3.75816
 Alpha virt. eigenvalues --    3.79074   3.85975   3.88825   3.91362   3.94145
 Alpha virt. eigenvalues --    3.96516   3.98087   3.99123   4.06570   4.10647
 Alpha virt. eigenvalues --    4.12114   4.14994   4.19028   4.20105   4.22058
 Alpha virt. eigenvalues --    4.22672   4.23893   4.26806   4.27591   4.29641
 Alpha virt. eigenvalues --    4.30958   4.33355   4.35738   4.36085   4.40952
 Alpha virt. eigenvalues --    4.42642   4.47633   4.48670   4.49141   4.52944
 Alpha virt. eigenvalues --    4.65808   4.67314   4.69494   4.74083   4.75117
 Alpha virt. eigenvalues --    4.77147   4.81137   4.82747   4.83792   4.84602
 Alpha virt. eigenvalues --    4.87499   4.91830   4.92907   4.94649   4.95686
 Alpha virt. eigenvalues --    4.97143   5.00595   5.01077   5.03751   5.08046
 Alpha virt. eigenvalues --    5.09125   5.16456   5.18436   5.18568   5.21449
 Alpha virt. eigenvalues --    5.22296   5.24348   5.27683   5.29244   5.30180
 Alpha virt. eigenvalues --    5.33378   5.36722   5.38011   5.40567   5.41103
 Alpha virt. eigenvalues --    5.43048   5.48430   5.49090   5.50459   5.60373
 Alpha virt. eigenvalues --    5.61185   5.65920   5.69286   5.73891   5.74485
 Alpha virt. eigenvalues --    5.78671   5.83045   5.85128   5.95348   6.00313
 Alpha virt. eigenvalues --    6.08532   6.11335   6.30475   6.42010   6.43967
 Alpha virt. eigenvalues --    6.52500   6.58741   6.61543   6.63406   6.91873
 Alpha virt. eigenvalues --    6.94960   6.98075   7.11420   7.29933   7.44178
 Alpha virt. eigenvalues --    7.52515   7.83049   7.85243  22.73608  22.95357
 Alpha virt. eigenvalues --   22.98763  23.08496  23.22210  23.53344  32.40118
 Alpha virt. eigenvalues --   32.53407  32.81055  44.47102  44.63785
          Condensed to atoms (all electrons):
              1          2          3          4          5          6
     1  C    9.170739  -0.377879  -0.801581  -0.192419  -1.469653  -0.138133
     2  C   -0.377879   6.435148   0.496333  -0.329973   0.401357  -0.594765
     3  C   -0.801581   0.496333   6.673372   0.063016  -0.199919   0.148762
     4  C   -0.192419  -0.329973   0.063016   6.894487   0.000498  -0.337942
     5  C   -1.469653   0.401357  -0.199919   0.000498   9.133920  -2.028807
     6  C   -0.138133  -0.594765   0.148762  -0.337942  -2.028807   8.755812
     7  H    0.450988  -0.068186  -0.012095  -0.002008   0.022871  -0.246667
     8  H   -0.007368  -0.078339   0.364215  -0.109734   0.006889   0.001853
     9  H    0.014984   0.007857  -0.066013   0.486721  -0.311240   0.053167
    10  N   -0.075000   0.464612  -0.235468  -0.022504   0.007425  -0.025615
    11  O    0.003898  -0.079421   0.014566   0.018384  -0.005737  -0.004367
    12  O   -0.067468  -0.039002   0.027429  -0.003691  -0.001473   0.039211
    13  N    0.014472  -0.022572   0.023371  -0.130784  -0.253798   0.415957
    14  H   -0.008845   0.007006  -0.047907   0.062212   0.049391  -0.185668
    15  H    0.011328  -0.004724   0.003192  -0.004473  -0.015257   0.008298
    16  N   -0.310502   0.062036  -0.000856  -0.009069   0.677646  -0.462139
    17  H    0.217039  -0.064292  -0.004597   0.004737  -0.235622  -0.000666
    18  H   -0.020187   0.008427  -0.000855   0.006407   0.009962  -0.022860
              7          8          9         10         11         12
     1  C    0.450988  -0.007368   0.014984  -0.075000   0.003898  -0.067468
     2  C   -0.068186  -0.078339   0.007857   0.464612  -0.079421  -0.039002
     3  C   -0.012095   0.364215  -0.066013  -0.235468   0.014566   0.027429
     4  C   -0.002008  -0.109734   0.486721  -0.022504   0.018384  -0.003691
     5  C    0.022871   0.006889  -0.311240   0.007425  -0.005737  -0.001473
     6  C   -0.246667   0.001853   0.053167  -0.025615  -0.004367   0.039211
     7  H    0.457931   0.000629  -0.000248   0.012550  -0.003970  -0.013278
     8  H    0.000629   0.396600  -0.011253   0.002671   0.001065  -0.001882
     9  H   -0.000248  -0.011253   0.554782  -0.001163   0.000569   0.000056
    10  N    0.012550   0.002671  -0.001163   5.792692   0.091555   0.096525
    11  O   -0.003970   0.001065   0.000569   0.091555   8.646913  -0.100711
    12  O   -0.013278  -0.001882   0.000056   0.096525  -0.100711   8.646792
    13  N   -0.002566   0.001484   0.027040   0.000113   0.000100   0.000054
    14  H    0.000356  -0.002131   0.000453  -0.000157   0.000031   0.000008
    15  H   -0.000478   0.000169  -0.000383   0.000047   0.000006   0.000012
    16  N    0.025201  -0.000099  -0.006228  -0.001850   0.000213   0.000160
    17  H   -0.003604   0.000043   0.000666   0.001012  -0.000011  -0.000587
    18  H    0.000048  -0.000056  -0.000451  -0.000154   0.000025   0.000037
             13         14         15         16         17         18
     1  C    0.014472  -0.008845   0.011328  -0.310502   0.217039  -0.020187
     2  C   -0.022572   0.007006  -0.004724   0.062036  -0.064292   0.008427
     3  C    0.023371  -0.047907   0.003192  -0.000856  -0.004597  -0.000855
     4  C   -0.130784   0.062212  -0.004473  -0.009069   0.004737   0.006407
     5  C   -0.253798   0.049391  -0.015257   0.677646  -0.235622   0.009962
     6  C    0.415957  -0.185668   0.008298  -0.462139  -0.000666  -0.022860
     7  H   -0.002566   0.000356  -0.000478   0.025201  -0.003604   0.000048
     8  H    0.001484  -0.002131   0.000169  -0.000099   0.000043  -0.000056
     9  H    0.027040   0.000453  -0.000383  -0.006228   0.000666  -0.000451
    10  N    0.000113  -0.000157   0.000047  -0.001850   0.001012  -0.000154
    11  O    0.000100   0.000031   0.000006   0.000213  -0.000011   0.000025
    12  O    0.000054   0.000008   0.000012   0.000160  -0.000587   0.000037
    13  N    7.025787   0.159276   0.381026  -0.128277   0.038000  -0.018068
    14  H    0.159276   0.747071  -0.037261   0.042158  -0.005541   0.004706
    15  H    0.381026  -0.037261   0.416103  -0.023115   0.005987   0.001838
    16  N   -0.128277   0.042158  -0.023115   7.162712   0.135264   0.400270
    17  H    0.038000  -0.005541   0.005987   0.135264   0.727039  -0.036298
    18  H   -0.018068   0.004706   0.001838   0.400270  -0.036298   0.422143
 Mulliken atomic charges:
              1
     1  C   -0.414413
     2  C   -0.223623
     3  C   -0.444966
     4  C   -0.393865
     5  C    0.211548
     6  C    0.624571
     7  H    0.382527
     8  H    0.435244
     9  H    0.250685
    10  N    0.892711
    11  O   -0.583107
    12  O   -0.582193
    13  N   -0.530614
    14  H    0.214843
    15  H    0.257684
    16  N   -0.563526
    17  H    0.221431
    18  H    0.245065
 Sum of Mulliken atomic charges =   0.00000
 Mulliken charges with hydrogens summed into heavy atoms:
              1
     1  C   -0.031886
     2  C   -0.223623
     3  C   -0.009722
     4  C   -0.143180
     5  C    0.211548
     6  C    0.624571
    10  N    0.892711
    11  O   -0.583107
    12  O   -0.582193
    13  N   -0.058087
    16  N   -0.097030
 Sum of Mulliken charges with hydrogens summed into heavy atoms =   0.00000
 Electronic spatial extent (au):  <R**2>=           1856.1584
 Charge=              0.0000 electrons
 Dipole moment (field-independent basis, Debye):
    X=              6.5903    Y=             -0.3243    Z=              0.0361  Tot=              6.5984
 Quadrupole moment (field-independent basis, Debye-Ang):
   XX=            -70.5423   YY=            -55.9023   ZZ=            -66.0418
   XY=              0.2639   XZ=             -1.0652   YZ=              2.8467
 Traceless Quadrupole moment (field-independent basis, Debye-Ang):
   XX=             -6.3802   YY=              8.2598   ZZ=             -1.8796
   XY=              0.2639   XZ=             -1.0652   YZ=              2.8467
 Octapole moment (field-independent basis, Debye-Ang**2):
  XXX=             80.8967  YYY=              5.3470  ZZZ=             -0.2059  XYY=             20.0037
  XXY=             -7.9503  XXZ=             -6.6935  XZZ=             -9.2252  YZZ=              2.8611
  YYZ=              4.4427  XYZ=              8.0843
 Hexadecapole moment (field-independent basis, Debye-Ang**3):
 XXXX=          -1759.7701 YYYY=           -499.5221 ZZZZ=            -73.0219 XXXY=            -17.5966
 XXXZ=            -35.5048 YYYX=              5.9370 YYYZ=             11.9076 ZZZX=             -0.4408
 ZZZY=              2.3990 XXYY=           -363.7850 XXZZ=           -295.9799 YYZZ=           -119.2894
 XXYZ=             28.3157 YYXZ=             10.5992 ZZXY=              0.6624
 N-N= 5.937687999879D+02 E-N=-2.466706358802D+03  KE= 5.450912928527D+02
 Calling FoFJK, ICntrl=      2127 FMM=F ISym2X=0 I1Cent= 0 IOpClX= 0 NMat=1 NMatS=1 NMatT=0.
 FoFJK:  IHMeth= 1 ICntrl=  2127 DoSepK=T KAlg= 1 I1Cent= 0 FoldK=F
 ***** Axes restored to original set *****
 -------------------------------------------------------------------
 Center     Atomic                   Forces (Hartrees/Bohr)
 Number     Number              X              Y              Z
 -------------------------------------------------------------------
      1        6          -0.000286250   -0.007585558   -0.002163868
      2        6          -0.000275903   -0.000591998   -0.002113654
      3        6           0.001586900   -0.003674160    0.004932125
      4        6           0.000353341    0.002685925    0.000678222
      5        6          -0.002884866    0.002117510   -0.000596176
      6        6           0.000795214    0.007201219   -0.002340365
      7        1          -0.000076504   -0.000998107   -0.002036219
      8        1           0.000432502   -0.000835975    0.001753955
      9        1          -0.000007733    0.000962212    0.001453335
     10        7          -0.001892550    0.013173560   -0.000698606
     11        8           0.005347264   -0.006743479    0.019850187
     12        8          -0.003300217   -0.008279440   -0.019448616
     13        7           0.004599776    0.002219678   -0.003464064
     14        1          -0.000944516    0.000705797    0.002835068
     15        1          -0.002981648    0.000043858   -0.001122251
     16        7          -0.003370258   -0.000663579    0.004225840
     17        1           0.000999896   -0.002158661   -0.002185725
     18        1           0.001905551    0.002421197    0.000440811
 -------------------------------------------------------------------
 Cartesian Forces:  Max     0.019850187 RMS     0.005108932

 GradGradGradGradGradGradGradGradGradGradGradGradGradGradGradGradGradGrad
 Berny optimization.
 Internal  Forces:  Max     0.021466514 RMS     0.003888440
 Search for a local minimum.
 Step number   1 out of a maximum of   91
 All quantities printed in internal units (Hartrees-Bohrs-Radians)
 Mixed Optimization -- RFO/linear search
 Second derivative matrix not updated -- first step.
     Eigenvalues ---    0.00908   0.00908   0.01742   0.01771   0.01856
     Eigenvalues ---    0.01997   0.02027   0.02087   0.02218   0.02230
     Eigenvalues ---    0.02244   0.02258   0.02263   0.04908   0.05019
     Eigenvalues ---    0.15996   0.15997   0.15999   0.16000   0.16000
     Eigenvalues ---    0.16000   0.16000   0.22371   0.23496   0.24581
     Eigenvalues ---    0.24942   0.24969   0.24999   0.25000   0.25000
     Eigenvalues ---    0.35359   0.35625   0.35889   0.37058   0.42006
     Eigenvalues ---    0.43032   0.45102   0.45124   0.45598   0.45646
     Eigenvalues ---    0.46021   0.46260   0.46627   0.47269   0.47607
     Eigenvalues ---    0.47832   0.90889   0.912751000.000001000.00000
     Eigenvalues --- 1000.000001000.000001000.000001000.000001000.00000
     Eigenvalues --- 1000.000001000.000001000.000001000.000001000.00000
     Eigenvalues --- 1000.000001000.000001000.000001000.000001000.00000
     Eigenvalues --- 1000.000001000.000001000.000001000.000001000.00000
     Eigenvalues --- 1000.000001000.000001000.000001000.000001000.00000
     Eigenvalues --- 1000.000001000.000001000.000001000.000001000.00000
     Eigenvalues --- 1000.00000
 RFO step:  Lambda=-1.89767181D-03 EMin= 9.07991655D-03
 Linear search not attempted -- first point.
 Iteration  1 RMS(Cart)=  0.01125137 RMS(Int)=  0.00011672
 Iteration  2 RMS(Cart)=  0.00011576 RMS(Int)=  0.00006222
 Iteration  3 RMS(Cart)=  0.00000002 RMS(Int)=  0.00006222
 Variable       Old X    -DE/DX   Delta X   Delta X   Delta X     New X
                                 (Linear)    (Quad)   (Total)
    R1        2.62224  -0.00298   0.00000  -0.00640  -0.00640   2.61584
    R2        2.62459  -0.00854   0.00000  -0.01784  -0.01784   2.60676
    R3        2.04672  -0.00225   0.00000  -0.00628  -0.00628   2.04045
    R4        2.61953  -0.00615   0.00000  -0.01301  -0.01301   2.60652
    R5        2.75759  -0.00185   0.00000  -0.00497  -0.00497   2.75262
    R6        2.62251  -0.00707   0.00000  -0.01482  -0.01482   2.60769
    R7        2.04256  -0.00199   0.00000  -0.00551  -0.00551   2.03705
    R8        2.63171  -0.00460   0.00000  -0.00959  -0.00959   2.62212
    R9        2.05096  -0.00174   0.00000  -0.00488  -0.00488   2.04608
   R10        2.66051  -0.00158   0.00000  -0.00330  -0.00331   2.65721
   R11        2.63431  -0.00295   0.00000  -0.00630  -0.00630   2.62801
   R12        2.63839   0.00215   0.00000   0.00463   0.00463   2.64302
   R13        2.32351  -0.02147   0.00000  -0.02347  -0.02347   2.30004
   R14        2.32526  -0.02123   0.00000  -0.02331  -0.02331   2.30195
   R15        1.91232  -0.00292   0.00000  -0.00637  -0.00637   1.90596
   R16        1.91832  -0.00294   0.00000  -0.00648  -0.00648   1.91184
   R17        1.91288  -0.00309   0.00000  -0.00675  -0.00675   1.90613
   R18        1.91858  -0.00298   0.00000  -0.00659  -0.00659   1.91199
    A1        2.08106   0.00143   0.00000   0.00604   0.00604   2.08711
    A2        2.08875  -0.00099   0.00000  -0.00466  -0.00466   2.08408
    A3        2.11320  -0.00044   0.00000  -0.00129  -0.00130   2.11190
    A4        2.13351  -0.00071   0.00000  -0.00374  -0.00373   2.12978
    A5        2.06888   0.00072   0.00000   0.00333   0.00333   2.07222
    A6        2.08075  -0.00001   0.00000   0.00040   0.00040   2.08115
    A7        2.06093   0.00098   0.00000   0.00359   0.00360   2.06453
    A8        2.09695  -0.00062   0.00000  -0.00258  -0.00258   2.09436
    A9        2.12522  -0.00036   0.00000  -0.00100  -0.00100   2.12422
   A10        2.11672  -0.00063   0.00000  -0.00272  -0.00272   2.11400
   A11        2.08737   0.00025   0.00000   0.00099   0.00099   2.08836
   A12        2.07888   0.00038   0.00000   0.00180   0.00180   2.08068
   A13        2.08460   0.00070   0.00000   0.00367   0.00364   2.08824
   A14        2.14088  -0.00195   0.00000  -0.00785  -0.00789   2.13299
   A15        2.05624   0.00126   0.00000   0.00492   0.00489   2.06113
   A16        2.08847  -0.00177   0.00000  -0.00646  -0.00648   2.08200
   A17        2.13702  -0.00026   0.00000  -0.00111  -0.00113   2.13589
   A18        2.05621   0.00204   0.00000   0.00804   0.00803   2.06424
   A19        2.05525   0.00215   0.00000   0.00853   0.00853   2.06378
   A20        2.05495   0.00198   0.00000   0.00786   0.00786   2.06281
   A21        2.17298  -0.00413   0.00000  -0.01639  -0.01639   2.15660
   A22        1.98680   0.00097   0.00000   0.01166   0.01145   1.99825
   A23        1.97294   0.00125   0.00000   0.01345   0.01324   1.98618
   A24        1.93634  -0.00018   0.00000   0.00795   0.00763   1.94397
   A25        1.98009   0.00104   0.00000   0.00968   0.00959   1.98968
   A26        1.96861   0.00127   0.00000   0.01112   0.01102   1.97963
   A27        1.92929  -0.00071   0.00000   0.00093   0.00078   1.93007
    D1        0.00639   0.00003   0.00000   0.00195   0.00197   0.00836
    D2        3.13777   0.00002   0.00000   0.00185   0.00186   3.13963
    D3       -3.11527  -0.00008   0.00000  -0.00327  -0.00326  -3.11854
    D4        0.01611  -0.00009   0.00000  -0.00337  -0.00337   0.01274
    D5        0.03046  -0.00019   0.00000  -0.00772  -0.00771   0.02275
    D6        3.11226   0.00009   0.00000   0.00193   0.00189   3.11415
    D7       -3.13135  -0.00008   0.00000  -0.00246  -0.00243  -3.13379
    D8       -0.04955   0.00020   0.00000   0.00719   0.00716  -0.04238
    D9       -0.02184   0.00000   0.00000   0.00094   0.00096  -0.02089
   D10        3.13342  -0.00001   0.00000  -0.00010  -0.00010   3.13332
   D11        3.13003   0.00000   0.00000   0.00103   0.00105   3.13108
   D12        0.00211  -0.00001   0.00000  -0.00001  -0.00001   0.00210
   D13       -3.11369  -0.00003   0.00000  -0.00341  -0.00341  -3.11710
   D14        0.02748  -0.00003   0.00000  -0.00339  -0.00339   0.02408
   D15        0.01800  -0.00004   0.00000  -0.00353  -0.00353   0.01447
   D16       -3.12401  -0.00004   0.00000  -0.00352  -0.00352  -3.12753
   D17        0.00018   0.00005   0.00000   0.00181   0.00180   0.00198
   D18       -3.11893  -0.00002   0.00000  -0.00177  -0.00180  -3.12073
   D19        3.12786   0.00005   0.00000   0.00286   0.00287   3.13073
   D20        0.00875  -0.00001   0.00000  -0.00073  -0.00073   0.00802
   D21        0.03599  -0.00014   0.00000  -0.00728  -0.00730   0.02869
   D22        3.11799   0.00023   0.00000   0.00791   0.00786   3.12585
   D23       -3.12798  -0.00008   0.00000  -0.00373  -0.00373  -3.13170
   D24       -0.04597   0.00029   0.00000   0.01147   0.01143  -0.03454
   D25       -0.05124   0.00023   0.00000   0.01030   0.01030  -0.04093
   D26       -3.13578   0.00003   0.00000   0.00138   0.00139  -3.13439
   D27       -3.13611  -0.00002   0.00000  -0.00373  -0.00380  -3.13991
   D28        0.06253  -0.00022   0.00000  -0.01265  -0.01271   0.04981
   D29        0.24265  -0.00091   0.00000  -0.01850  -0.01860   0.22405
   D30        2.47275   0.00079   0.00000   0.01487   0.01500   2.48775
   D31       -2.95762  -0.00057   0.00000  -0.00357  -0.00369  -2.96131
   D32       -0.72752   0.00114   0.00000   0.02980   0.02990  -0.69762
   D33        0.20786  -0.00082   0.00000  -0.02657  -0.02664   0.18122
   D34        2.41859   0.00017   0.00000  -0.00760  -0.00756   2.41103
   D35       -2.99247  -0.00066   0.00000  -0.01756  -0.01760  -3.01007
   D36       -0.78174   0.00033   0.00000   0.00141   0.00148  -0.78026
         Item               Value     Threshold  Converged?
 Maximum Force            0.021467     0.000015     NO 
 RMS     Force            0.003888     0.000010     NO 
 Maximum Displacement     0.034447     0.000060     NO 
 RMS     Displacement     0.011277     0.000040     NO 
 Predicted change in Energy=-9.567511D-04
 GradGradGradGradGradGradGradGradGradGradGradGradGradGradGradGradGradGrad

                          Input orientation:                          
 ---------------------------------------------------------------------
 Center     Atomic      Atomic             Coordinates (Angstroms)
 Number     Number       Type             X           Y           Z
 ---------------------------------------------------------------------
      1          6           0        0.059871    0.012735   -0.004489
      2          6           0       -0.250691    0.628411   -1.204749
      3          6           0       -0.393917   -0.084351   -2.376910
      4          6           0       -0.194514   -1.449322   -2.340815
      5          6           0        0.139293   -2.094362   -1.158511
      6          6           0        0.243847   -1.353885    0.032276
      7          1           0        0.140901    0.609140    0.891955
      8          1           0       -0.643811    0.427736   -3.291964
      9          1           0       -0.282160   -2.027785   -3.251869
     10          7           0       -0.443429    2.072126   -1.221803
     11          8           0       -0.741725    2.601002   -2.276654
     12          8           0       -0.297621    2.684512   -0.178928
     13          7           0        0.327354   -3.470687   -1.092508
     14          1           0        0.403620   -3.925757   -1.989363
     15          1           0        1.075354   -3.751235   -0.471760
     16          7           0        0.590530   -2.031638    1.205570
     17          1           0        0.530646   -1.466390    2.038843
     18          1           0        0.090577   -2.902462    1.329739
 ---------------------------------------------------------------------
                    Distance matrix (angstroms):
                    1          2          3          4          5
     1  C    0.000000
     2  C    1.384244   0.000000
     3  C    2.417381   1.379313   0.000000
     4  C    2.767804   2.368708   1.379931   0.000000
     5  C    2.403732   2.750949   2.410176   1.387568   0.000000
     6  C    1.379437   2.388367   2.796897   2.415125   1.406133
     7  H    1.079757   2.133045   3.384145   3.847151   3.393130
     8  H    3.387460   2.133373   1.077963   2.151720   3.394974
     9  H    3.850478   3.353665   2.134239   1.082738   2.136400
    10  N    2.444639   1.456623   2.446859   3.703343   4.207516
    11  O    3.536159   2.298088   2.709639   4.087626   4.906412
    12  O    2.701226   2.298273   3.536524   4.666151   4.897766
    13  N    3.659175   4.141176   3.692856   2.432392   1.390681
    14  H    4.423755   4.667354   3.942418   2.571772   2.028347
    15  H    3.926451   4.634325   4.385703   3.225637   2.023133
    16  N    2.434194   3.686890   4.194666   3.678618   2.407577
    17  H    2.566056   3.939489   4.718445   4.439319   3.281856
    18  H    3.206163   4.359720   4.681423   3.958012   2.616636
                    6          7          8          9         10
     6  C    0.000000
     7  H    2.145486   0.000000
     8  H    3.874619   4.260734   0.000000
     9  H    3.393587   4.929871   2.482333   0.000000
    10  N    3.712494   2.636236   2.651366   4.577821   0.000000
    11  O    4.684404   3.845339   2.400735   4.752674   1.217129
    12  O    4.080005   2.376186   3.860554   5.625740   1.218139
    13  N    2.398534   4.540688   4.580226   2.667642   5.597643
    14  H    3.275222   5.379247   4.663344   2.380444   6.105837
    15  H    2.587034   4.663238   5.326619   3.541487   6.064718
    16  N    1.398627   2.697078   5.272564   4.542066   4.878739
    17  H    2.030080   2.403139   5.777938   5.382142   4.909351
    18  H    2.026079   3.539143   5.743664   4.679223   5.616232
                   11         12         13         14         15
    11  O    0.000000
    12  O    2.145846   0.000000
    13  N    6.277782   6.253934   0.000000
    14  H    6.632717   6.889490   1.008590   0.000000
    15  H    6.849112   6.587082   1.011702   1.668773   0.000000
    16  N    5.946608   4.994769   2.724204   3.718900   2.450613
    17  H    6.065157   4.778548   3.723425   4.721342   3.438074
    18  H    6.632263   5.800091   2.499244   3.487343   2.221621
                   16         17         18
    16  N    0.000000
    17  H    1.008680   0.000000
    18  H    1.011783   1.660962   0.000000
 Stoichiometry    C6H7N3O2
 Framework group  C1[X(C6H7N3O2)]
 Deg. of freedom    48
 Full point group                 C1      NOp   1
 Largest Abelian subgroup         C1      NOp   1
 Largest concise Abelian subgroup C1      NOp   1
                         Standard orientation:                         
 ---------------------------------------------------------------------
 Center     Atomic      Atomic             Coordinates (Angstroms)
 Number     Number       Type             X           Y           Z
 ---------------------------------------------------------------------
      1          6           0       -0.082284    0.971709   -0.002935
      2          6           0       -0.939016   -0.115546    0.001189
      3          6           0       -0.473396   -1.413634    0.027060
      4          6           0        0.891145   -1.619131    0.023940
      5          6           0        1.777153   -0.551584   -0.002081
      6          6           0        1.281403    0.764209    0.009320
      7          1           0       -0.492930    1.970331   -0.001885
      8          1           0       -1.170198   -2.236049    0.037217
      9          1           0        1.280747   -2.629345    0.024289
     10          7           0       -2.375601    0.125003   -0.009427
     11          8           0       -3.120911   -0.836775    0.020560
     12          8           0       -2.765678    1.278372   -0.047410
     13          7           0        3.155993   -0.732074    0.012749
     14          1           0        3.455567   -1.679385   -0.160777
     15          1           0        3.660171   -0.073764   -0.566882
     16          7           0        2.199758    1.818488   -0.026434
     17          1           0        1.784972    2.728521    0.104819
     18          1           0        2.983295    1.690845    0.600848
 ---------------------------------------------------------------------
 Rotational constants (GHZ):      2.5408711      0.7368873      0.5722444
 Basis read from rwf:  (5D, 7F)
 There are   476 symmetry adapted basis functions of A   symmetry.
 Integral buffers will be    131072 words long.
 Raffenetti 2 integral format.
 Two-electron integral symmetry is turned on.
   476 basis functions,   721 primitive gaussians,   542 cartesian basis functions
    40 alpha electrons       40 beta electrons
       nuclear repulsion energy       595.7716117633 Hartrees.
 NAtoms=   18 NActive=   18 NUniq=   18 SFac= 7.50D-01 NAtFMM=   80 NAOKFM=F Big=F
 One-electron integrals computed using PRISM.
 NBasis=   476 RedAO= T  NBF=   476
 NBsUse=   474 1.00D-06 NBFU=   474
 Initial guess read from the read-write file.
 B after Tr=     0.000000    0.000000    0.000000
         Rot=    1.000000    0.000000    0.000000    0.000000 Ang=   0.00 deg.
 Initial guess orbital symmetries:
       Occupied  (A) (A) (A) (A) (A) (A) (A) (A) (A) (A) (A) (A)
                 (A) (A) (A) (A) (A) (A) (A) (A) (A) (A) (A) (A)
                 (A) (A) (A) (A) (A) (A) (A) (A) (A) (A) (A) (A)
                 (A) (A) (A) (A)
       Virtual   (A) (A) (A) (A) (A) (A) (A) (A) (A) (A) (A) (A)
                 (A) (A) (A) (A) (A) (A) (A) (A) (A) (A) (A) (A)
                 (A) (A) (A) (A) (A) (A) (A) (A) (A) (A) (A) (A)
                 (A) (A) (A) (A) (A) (A) (A) (A) (A) (A) (A) (A)
                 (A) (A) (A) (A) (A) (A) (A) (A) (A) (A) (A) (A)
                 (A) (A) (A) (A) (A) (A) (A) (A) (A) (A) (A) (A)
                 (A) (A) (A) (A) (A) (A) (A) (A) (A) (A) (A) (A)
                 (A) (A) (A) (A) (A) (A) (A) (A) (A) (A) (A) (A)
                 (A) (A) (A) (A) (A) (A) (A) (A) (A) (A) (A) (A)
                 (A) (A) (A) (A) (A) (A) (A) (A) (A) (A) (A) (A)
                 (A) (A) (A) (A) (A) (A) (A) (A) (A) (A) (A) (A)
                 (A) (A) (A) (A) (A) (A) (A) (A) (A) (A) (A) (A)
                 (A) (A) (A) (A) (A) (A) (A) (A) (A) (A) (A) (A)
                 (A) (A) (A) (A) (A) (A) (A) (A) (A) (A) (A) (A)
                 (A) (A) (A) (A) (A) (A) (A) (A) (A) (A) (A) (A)
                 (A) (A) (A) (A) (A) (A) (A) (A) (A) (A) (A) (A)
                 (A) (A) (A) (A) (A) (A) (A) (A) (A) (A) (A) (A)
                 (A) (A) (A) (A) (A) (A) (A) (A) (A) (A) (A) (A)
                 (A) (A) (A) (A) (A) (A) (A) (A) (A) (A) (A) (A)
                 (A) (A) (A) (A) (A) (A) (A) (A) (A) (A) (A) (A)
                 (A) (A) (A) (A) (A) (A) (A) (A) (A) (A) (A) (A)
                 (A) (A) (A) (A) (A) (A) (A) (A) (A) (A) (A) (A)
                 (A) (A) (A) (A) (A) (A) (A) (A) (A) (A) (A) (A)
                 (A) (A) (A) (A) (A) (A) (A) (A) (A) (A) (A) (A)
                 (A) (A) (A) (A) (A) (A) (A) (A) (A) (A) (A) (A)
                 (A) (A) (A) (A) (A) (A) (A) (A) (A) (A) (A) (A)
                 (A) (A) (A) (A) (A) (A) (A) (A) (A) (A) (A) (A)
                 (A) (A) (A) (A) (A) (A) (A) (A) (A) (A) (A) (A)
                 (A) (A) (A) (A) (A) (A) (A) (A) (A) (A) (A) (A)
                 (A) (A) (A) (A) (A) (A) (A) (A) (A) (A) (A) (A)
                 (A) (A) (A) (A) (A) (A) (A) (A) (A) (A) (A) (A)
                 (A) (A) (A) (A) (A) (A) (A) (A) (A) (A) (A) (A)
                 (A) (A) (A) (A) (A) (A) (A) (A) (A) (A) (A) (A)
                 (A) (A) (A) (A) (A) (A) (A) (A) (A) (A) (A) (A)
                 (A) (A) (A) (A) (A) (A) (A) (A) (A) (A) (A) (A)
                 (A) (A) (A) (A) (A) (A) (A) (A) (A) (A) (A) (A)
                 (A) (A)
 Harris functional with IExCor=20419 diagonalized for initial guess.
 ExpMin= 4.85D-02 ExpMax= 2.70D+04 ExpMxC= 9.22D+02 IAcc=3 IRadAn=         5 AccDes= 0.00D+00
 HarFok:  IExCor=20419 AccDes= 0.00D+00 IRadAn=         5 IDoV= 1
 ScaDFX=  1.000000  1.000000  1.000000  1.000000
 FoFCou: FMM=F IPFlag=           0 FMFlag=      100000 FMFlg1=           0
         NFxFlg=           0 DoJE=T BraDBF=F KetDBF=T FulRan=T
         Omega=  0.000000  0.000000  1.000000  0.000000  0.000000 ICntrl=     500 IOpCl=  0
         NMat0=    1 NMatS0=    1 NMatT0=    0 NMatD0=    1 NMtDS0=    0 NMtDT0=    0
         I1Cent=           4 NGrid=           0.
 Petite list used in FoFCou.
 FoFJK:  IHMeth= 1 ICntrl=     0 DoSepK=T KAlg= 1 I1Cent= 0 FoldK=F
 Gradient too large for Newton-Raphson -- use scaled steepest descent instead.
 FoFJK:  IHMeth= 1 ICntrl=     0 DoSepK=T KAlg= 1 I1Cent= 0 FoldK=F
 FoFJK:  IHMeth= 1 ICntrl=     0 DoSepK=T KAlg= 1 I1Cent= 0 FoldK=F
 FoFJK:  IHMeth= 1 ICntrl=     0 DoSepK=T KAlg= 1 I1Cent= 0 FoldK=F
 FoFJK:  IHMeth= 1 ICntrl=     0 DoSepK=T KAlg= 1 I1Cent= 0 FoldK=F
 FoFJK:  IHMeth= 1 ICntrl=     0 DoSepK=T KAlg= 1 I1Cent= 0 FoldK=F
 FoFJK:  IHMeth= 1 ICntrl=     0 DoSepK=T KAlg= 1 I1Cent= 0 FoldK=F
 FoFJK:  IHMeth= 1 ICntrl=     0 DoSepK=T KAlg= 1 I1Cent= 0 FoldK=F
 LinEq1:  Iter=  0 NonCon=     1 RMS=5.09D-05 Max=1.87D-03
 AX will form     1 AO Fock derivatives at one time.
 FoFJK:  IHMeth= 1 ICntrl=     0 DoSepK=T KAlg= 1 I1Cent= 0 FoldK=F
 LinEq1:  Iter=  1 NonCon=     1 RMS=3.53D-05 Max=1.36D-03
 FoFJK:  IHMeth= 1 ICntrl=     0 DoSepK=T KAlg= 1 I1Cent= 0 FoldK=F
 LinEq1:  Iter=  2 NonCon=     1 RMS=1.91D-05 Max=5.64D-04
 FoFJK:  IHMeth= 1 ICntrl=     0 DoSepK=T KAlg= 1 I1Cent= 0 FoldK=F
 LinEq1:  Iter=  3 NonCon=     1 RMS=8.37D-06 Max=3.49D-04
 FoFJK:  IHMeth= 1 ICntrl=     0 DoSepK=T KAlg= 1 I1Cent= 0 FoldK=F
 LinEq1:  Iter=  4 NonCon=     1 RMS=6.43D-06 Max=3.62D-04
 FoFJK:  IHMeth= 1 ICntrl=     0 DoSepK=T KAlg= 1 I1Cent= 0 FoldK=F
 LinEq1:  Iter=  5 NonCon=     1 RMS=5.13D-06 Max=3.11D-04
 FoFJK:  IHMeth= 1 ICntrl=     0 DoSepK=T KAlg= 1 I1Cent= 0 FoldK=F
 LinEq1:  Iter=  6 NonCon=     1 RMS=3.30D-06 Max=1.57D-04
 FoFJK:  IHMeth= 1 ICntrl=     0 DoSepK=T KAlg= 1 I1Cent= 0 FoldK=F
 LinEq1:  Iter=  7 NonCon=     1 RMS=1.61D-06 Max=7.41D-05
 FoFJK:  IHMeth= 1 ICntrl=     0 DoSepK=T KAlg= 1 I1Cent= 0 FoldK=F
 LinEq1:  Iter=  8 NonCon=     1 RMS=9.36D-07 Max=3.62D-05
 FoFJK:  IHMeth= 1 ICntrl=     0 DoSepK=T KAlg= 1 I1Cent= 0 FoldK=F
 LinEq1:  Iter=  9 NonCon=     1 RMS=3.29D-07 Max=1.27D-05
 FoFJK:  IHMeth= 1 ICntrl=     0 DoSepK=T KAlg= 1 I1Cent= 0 FoldK=F
 LinEq1:  Iter= 10 NonCon=     1 RMS=2.18D-07 Max=1.03D-05
 FoFJK:  IHMeth= 1 ICntrl=     0 DoSepK=T KAlg= 1 I1Cent= 0 FoldK=F
 LinEq1:  Iter= 11 NonCon=     1 RMS=9.18D-08 Max=2.99D-06
 FoFJK:  IHMeth= 1 ICntrl=     0 DoSepK=T KAlg= 1 I1Cent= 0 FoldK=F
 LinEq1:  Iter= 12 NonCon=     1 RMS=3.37D-08 Max=1.80D-06
 FoFJK:  IHMeth= 1 ICntrl=     0 DoSepK=T KAlg= 1 I1Cent= 0 FoldK=F
 LinEq1:  Iter= 13 NonCon=     1 RMS=2.07D-08 Max=8.16D-07
 FoFJK:  IHMeth= 1 ICntrl=     0 DoSepK=T KAlg= 1 I1Cent= 0 FoldK=F
 LinEq1:  Iter= 14 NonCon=     1 RMS=8.72D-09 Max=2.92D-07
 FoFJK:  IHMeth= 1 ICntrl=     0 DoSepK=T KAlg= 1 I1Cent= 0 FoldK=F
 LinEq1:  Iter= 15 NonCon=     0 RMS=3.31D-09 Max=1.20D-07
 Linear equations converged to 1.863D-08 1.863D-07 after    15 iterations.
 FoFJK:  IHMeth= 1 ICntrl=     0 DoSepK=T KAlg= 1 I1Cent= 0 FoldK=F
 FoFJK:  IHMeth= 1 ICntrl=     0 DoSepK=T KAlg= 1 I1Cent= 0 FoldK=F
 FoFJK:  IHMeth= 1 ICntrl=     0 DoSepK=T KAlg= 1 I1Cent= 0 FoldK=F
 LinEq1:  Iter=  0 NonCon=     1 RMS=6.65D-08 Max=2.95D-06
 FoFJK:  IHMeth= 1 ICntrl=     0 DoSepK=T KAlg= 1 I1Cent= 0 FoldK=F
 LinEq1:  Iter=  1 NonCon=     1 RMS=3.63D-08 Max=2.47D-06
 FoFJK:  IHMeth= 1 ICntrl=     0 DoSepK=T KAlg= 1 I1Cent= 0 FoldK=F
 LinEq1:  Iter=  2 NonCon=     1 RMS=1.35D-08 Max=5.70D-07
 FoFJK:  IHMeth= 1 ICntrl=     0 DoSepK=T KAlg= 1 I1Cent= 0 FoldK=F
 LinEq1:  Iter=  3 NonCon=     1 RMS=7.70D-09 Max=3.33D-07
 FoFJK:  IHMeth= 1 ICntrl=     0 DoSepK=T KAlg= 1 I1Cent= 0 FoldK=F
 LinEq1:  Iter=  4 NonCon=     1 RMS=4.04D-09 Max=2.00D-07
 FoFJK:  IHMeth= 1 ICntrl=     0 DoSepK=T KAlg= 1 I1Cent= 0 FoldK=F
 LinEq1:  Iter=  5 NonCon=     1 RMS=3.41D-09 Max=2.09D-07
 FoFJK:  IHMeth= 1 ICntrl=     0 DoSepK=T KAlg= 1 I1Cent= 0 FoldK=F
 LinEq1:  Iter=  6 NonCon=     1 RMS=2.32D-09 Max=9.86D-08
 FoFJK:  IHMeth= 1 ICntrl=     0 DoSepK=T KAlg= 1 I1Cent= 0 FoldK=F
 LinEq1:  Iter=  7 NonCon=     1 RMS=1.49D-09 Max=6.21D-08
 FoFJK:  IHMeth= 1 ICntrl=     0 DoSepK=T KAlg= 1 I1Cent= 0 FoldK=F
 LinEq1:  Iter=  8 NonCon=     1 RMS=8.11D-10 Max=3.09D-08
 FoFJK:  IHMeth= 1 ICntrl=     0 DoSepK=T KAlg= 1 I1Cent= 0 FoldK=F
 LinEq1:  Iter=  9 NonCon=     1 RMS=4.68D-10 Max=1.93D-08
 FoFJK:  IHMeth= 1 ICntrl=     0 DoSepK=T KAlg= 1 I1Cent= 0 FoldK=F
 LinEq1:  Iter= 10 NonCon=     1 RMS=2.00D-10 Max=7.53D-09
 FoFJK:  IHMeth= 1 ICntrl=     0 DoSepK=T KAlg= 1 I1Cent= 0 FoldK=F
 LinEq1:  Iter= 11 NonCon=     1 RMS=1.08D-10 Max=3.38D-09
 FoFJK:  IHMeth= 1 ICntrl=     0 DoSepK=T KAlg= 1 I1Cent= 0 FoldK=F
 LinEq1:  Iter= 12 NonCon=     1 RMS=4.71D-11 Max=1.64D-09
 FoFJK:  IHMeth= 1 ICntrl=     0 DoSepK=T KAlg= 1 I1Cent= 0 FoldK=F
 LinEq1:  Iter= 13 NonCon=     0 RMS=1.54D-11 Max=4.29D-10
 Linear equations converged to 9.941D-11 9.941D-10 after    13 iterations.
 FoFJK:  IHMeth= 1 ICntrl=     0 DoSepK=T KAlg= 1 I1Cent= 0 FoldK=F
 SCF Done:  E(RCAM-B3LYP) =  -547.448110492     a.u. after    4 cycles
            Convg  =    0.1621D-08                    40 Fock formations.
              S**2 =  0.0000                  -V/T =  2.0039
 Calling FoFJK, ICntrl=      2127 FMM=F ISym2X=0 I1Cent= 0 IOpClX= 0 NMat=1 NMatS=1 NMatT=0.
 FoFJK:  IHMeth= 1 ICntrl=  2127 DoSepK=T KAlg= 1 I1Cent= 0 FoldK=F
 ***** Axes restored to original set *****
 -------------------------------------------------------------------
 Center     Atomic                   Forces (Hartrees/Bohr)
 Number     Number              X              Y              Z
 -------------------------------------------------------------------
      1        6          -0.000114884   -0.001249190    0.000092151
      2        6          -0.000098516    0.000630088   -0.000715826
      3        6          -0.000029465    0.000183040    0.000595906
      4        6          -0.000135785   -0.000329611   -0.000683466
      5        6           0.000131361   -0.002316921    0.000722641
      6        6           0.000362391    0.000832099    0.000656640
      7        1          -0.000005541    0.000382527    0.000183526
      8        1          -0.000065408    0.000241126   -0.000249510
      9        1          -0.000001159   -0.000148749    0.000082660
     10        7          -0.000960660    0.006924529   -0.000167058
     11        8           0.000722844   -0.003112462    0.001307999
     12        8           0.000160568   -0.003182785   -0.001056673
     13        7           0.001947793    0.001447230   -0.001102936
     14        1          -0.000573397    0.000078501    0.000508676
     15        1          -0.001174828   -0.000101943    0.000302501
     16        7          -0.000963551   -0.000685750    0.000009177
     17        1           0.000441470    0.000080544   -0.000445240
     18        1           0.000356767    0.000327726   -0.000041168
 -------------------------------------------------------------------
 Cartesian Forces:  Max     0.006924529 RMS     0.001321403

 GradGradGradGradGradGradGradGradGradGradGradGradGradGradGradGradGradGrad
 Berny optimization.
 Using GEDIIS/GDIIS optimizer.
 Internal  Forces:  Max     0.003416285 RMS     0.000705642
 Search for a local minimum.
 Step number   2 out of a maximum of   91
 All quantities printed in internal units (Hartrees-Bohrs-Radians)
 Mixed Optimization -- En-DIIS/RFO-DIIS
 Update second derivatives using D2CorX and points    1    2
 DE= -1.01D-03 DEPred=-9.57D-04 R= 1.06D+00
 SS=  1.41D+00  RLast= 8.32D-02 DXNew= 5.0454D-01 2.4952D-01
 Trust test= 1.06D+00 RLast= 8.32D-02 DXMaxT set to 3.00D-01
 Use linear search instead of GDIIS.
     Eigenvalues ---    0.00908   0.00908   0.01723   0.01766   0.01854
     Eigenvalues ---    0.02002   0.02025   0.02085   0.02217   0.02229
     Eigenvalues ---    0.02244   0.02258   0.02262   0.04396   0.04826
     Eigenvalues ---    0.15897   0.15997   0.15999   0.15999   0.16000
     Eigenvalues ---    0.16000   0.16043   0.22364   0.23211   0.24576
     Eigenvalues ---    0.24846   0.24976   0.24999   0.25000   0.27324
     Eigenvalues ---    0.35368   0.35706   0.36020   0.37216   0.41987
     Eigenvalues ---    0.42969   0.44486   0.45112   0.45449   0.45621
     Eigenvalues ---    0.46047   0.46255   0.46296   0.47380   0.47740
     Eigenvalues ---    0.50743   0.83156   0.910811000.000001000.00000
     Eigenvalues --- 1000.000001000.000001000.000001000.000001000.00000
     Eigenvalues --- 1000.000001000.000001000.000001000.000001000.00000
     Eigenvalues --- 1000.000001000.000001000.000001000.000001000.00000
     Eigenvalues --- 1000.000001000.000001000.000001000.000001000.00000
     Eigenvalues --- 1000.000001000.000001000.000001000.000001000.00000
     Eigenvalues --- 1000.000001000.000001000.000001000.000001000.00000
     Eigenvalues --- 1000.00000
 RFO step:  Lambda=-1.73955946D-04 EMin= 9.07659408D-03
 Quartic linear search produced a step of  0.05442.
 Iteration  1 RMS(Cart)=  0.00713120 RMS(Int)=  0.00009499
 Iteration  2 RMS(Cart)=  0.00008137 RMS(Int)=  0.00003817
 Iteration  3 RMS(Cart)=  0.00000000 RMS(Int)=  0.00003817
 Variable       Old X    -DE/DX   Delta X   Delta X   Delta X     New X
                                 (Linear)    (Quad)   (Total)
    R1        2.61584   0.00076  -0.00035   0.00141   0.00107   2.61691
    R2        2.60676  -0.00004  -0.00097  -0.00075  -0.00172   2.60504
    R3        2.04045   0.00036  -0.00034   0.00087   0.00052   2.04097
    R4        2.60652   0.00007  -0.00071  -0.00027  -0.00097   2.60555
    R5        2.75262   0.00063  -0.00027   0.00164   0.00136   2.75398
    R6        2.60769   0.00090  -0.00081   0.00155   0.00074   2.60844
    R7        2.03705   0.00034  -0.00030   0.00082   0.00052   2.03758
    R8        2.62212   0.00064  -0.00052   0.00117   0.00065   2.62277
    R9        2.04608   0.00001  -0.00027  -0.00013  -0.00040   2.04568
   R10        2.65721   0.00026  -0.00018   0.00050   0.00032   2.65753
   R11        2.62801  -0.00140  -0.00034  -0.00337  -0.00371   2.62429
   R12        2.64302  -0.00031   0.00025  -0.00054  -0.00029   2.64273
   R13        2.30004  -0.00266  -0.00128  -0.00388  -0.00516   2.29488
   R14        2.30195  -0.00249  -0.00127  -0.00368  -0.00495   2.29700
   R15        1.90596  -0.00053  -0.00035  -0.00144  -0.00179   1.90417
   R16        1.91184  -0.00065  -0.00035  -0.00175  -0.00210   1.90974
   R17        1.90613  -0.00035  -0.00037  -0.00103  -0.00140   1.90473
   R18        1.91199  -0.00046  -0.00036  -0.00130  -0.00166   1.91033
    A1        2.08711   0.00039   0.00033   0.00178   0.00211   2.08921
    A2        2.08408  -0.00042  -0.00025  -0.00239  -0.00265   2.08143
    A3        2.11190   0.00003  -0.00007   0.00065   0.00057   2.11247
    A4        2.12978  -0.00047  -0.00020  -0.00222  -0.00242   2.12736
    A5        2.07222   0.00004   0.00018   0.00032   0.00050   2.07272
    A6        2.08115   0.00043   0.00002   0.00189   0.00191   2.08306
    A7        2.06453   0.00021   0.00020   0.00123   0.00143   2.06596
    A8        2.09436  -0.00020  -0.00014  -0.00123  -0.00137   2.09299
    A9        2.12422  -0.00002  -0.00005   0.00000  -0.00006   2.12417
   A10        2.11400  -0.00003  -0.00015  -0.00006  -0.00021   2.11379
   A11        2.08836   0.00019   0.00005   0.00115   0.00120   2.08956
   A12        2.08068  -0.00015   0.00010  -0.00106  -0.00096   2.07972
   A13        2.08824  -0.00024   0.00020  -0.00090  -0.00070   2.08754
   A14        2.13299   0.00003  -0.00043  -0.00016  -0.00059   2.13240
   A15        2.06113   0.00021   0.00027   0.00103   0.00130   2.06243
   A16        2.08200   0.00015  -0.00035   0.00021  -0.00014   2.08186
   A17        2.13589   0.00034  -0.00006   0.00146   0.00139   2.13729
   A18        2.06424  -0.00048   0.00044  -0.00171  -0.00127   2.06297
   A19        2.06378  -0.00164   0.00046  -0.00662  -0.00616   2.05762
   A20        2.06281  -0.00178   0.00043  -0.00725  -0.00682   2.05600
   A21        2.15660   0.00342  -0.00089   0.01387   0.01298   2.16957
   A22        1.99825   0.00033   0.00062   0.00705   0.00752   2.00577
   A23        1.98618   0.00060   0.00072   0.00895   0.00952   1.99570
   A24        1.94397   0.00021   0.00042   0.00860   0.00880   1.95277
   A25        1.98968  -0.00020   0.00052   0.00036   0.00087   1.99055
   A26        1.97963   0.00030   0.00060   0.00372   0.00431   1.98394
   A27        1.93007   0.00021   0.00004   0.00364   0.00365   1.93372
    D1        0.00836   0.00003   0.00011   0.00155   0.00166   0.01001
    D2        3.13963   0.00002   0.00010   0.00080   0.00091   3.14054
    D3       -3.11854  -0.00002  -0.00018  -0.00065  -0.00082  -3.11936
    D4        0.01274  -0.00003  -0.00018  -0.00139  -0.00157   0.01117
    D5        0.02275  -0.00004  -0.00042  -0.00210  -0.00252   0.02023
    D6        3.11415  -0.00007   0.00010  -0.00313  -0.00303   3.11112
    D7       -3.13379   0.00001  -0.00013   0.00011  -0.00002  -3.13381
    D8       -0.04238  -0.00003   0.00039  -0.00092  -0.00053  -0.04292
    D9       -0.02089  -0.00001   0.00005  -0.00073  -0.00068  -0.02157
   D10        3.13332  -0.00001  -0.00001  -0.00042  -0.00042   3.13290
   D11        3.13108   0.00000   0.00006   0.00002   0.00008   3.13116
   D12        0.00210   0.00001   0.00000   0.00034   0.00034   0.00244
   D13       -3.11710  -0.00002  -0.00019  -0.00291  -0.00309  -3.12019
[...]
 764488,0.0691454,0.086968,-0.1908258,-0.060428,-0.2478911,1.6899314,-0
 .0853066,-0.0668012,0.1290259,-0.108992,0.0693775,-0.1537267,0.2042866
 ,-0.0791236,-0.2856569,-0.5170026,0.2809216,-0.9408915,0.869509,0.1329
 098,0.0127317,-0.0169093,-0.0034415,0.1302471,-0.0320439,-0.0166713,-0
 .0170369,0.0270469,0.1368756,-0.0033877,-0.020356,0.009591,0.110106,0.
 0258883,-0.0167189,0.0195251,0.0657017,0.1327438,0.004529,-0.0107377,0
 .0081278,-0.0068765,-0.0751313,-0.0172525,-0.0736023,-0.0159251,0.3434
 169,-0.2734299,0.2685146,-0.2706531,2.2930703,0.003007,0.2740844,0.045
 0012,1.5860739,-0.3165561,0.1750634,-0.1945796,0.1731563,-0.9409407,0.
 3918431,-0.1937004,0.3764016,-0.9416814,-0.2761654,0.0140394,-0.086583
 1,0.0141152,-0.971864,-0.3884401,-0.088509,-0.3967568,-0.9331876,-0.35
 22679,-0.1962323,0.0554665,0.1287352,-1.6958586,0.0462148,0.0642468,0.
 2257699,-0.2161352,0.2284683,0.1532861,0.0065446,0.0425044,0.2585129,0
 .0448414,-0.0081369,0.0048994,0.1061656,0.1690265,0.1558282,-0.0435975
 ,-0.0106253,0.245374,-0.0421877,-0.0350064,-0.1441411,0.2047195,-0.488
 786,0.2823166,-0.368751,0.2093952,-0.4556222,0.441442,-0.1630403,0.410
 3474,-0.8581326,0.2739799,-0.0082515,0.1009608,-0.0035389,0.1017759,-0
 .0539782,0.0263129,-0.0024979,0.1733666,0.2028333,-0.1325,0.0928325,-0
 .0771583,0.206942,-0.0419012,-0.0417841,-0.0023306,0.1235319\Polar=64.
 3318189,-14.0735467,153.8606431,11.0846408,-5.1318168,115.6246969\PG=C
 01 [X(C6H7N3O2)]\NImag=0\\0.16263806,-0.07262083,0.72044285,0.10141020
 ,0.03961775,0.72838850,-0.07485369,0.01981261,-0.05756359,0.17125803,0
 .03145640,-0.14362887,0.09980852,-0.05249789,0.57005297,-0.04832455,0.
 04234465,-0.29135585,0.11769167,0.02268575,0.75540627,0.00848677,-0.00
 230409,-0.00876589,-0.07256932,-0.01199327,-0.03917985,0.17620769,-0.0
 1197580,0.05415825,-0.02732648,-0.00043414,-0.15694379,-0.05766354,-0.
 08180101,0.70427836,-0.01544787,0.02116792,-0.05900599,-0.03042387,-0.
 11860642,-0.29409868,0.12027862,-0.02428306,0.72995435,-0.00493109,0.0
 0841983,-0.00815907,0.00991674,0.00564103,0.01585567,-0.06968560,0.033
 96075,-0.01780305,0.16214823,0.01165384,-0.04203601,0.03300972,-0.0066
 0922,-0.04543895,-0.07596176,0.04712605,-0.35145073,0.03676222,-0.0786
 1946,0.72094825,-0.00612821,0.01594507,-0.01755427,0.00687968,-0.01663
 104,0.03173992,-0.00792832,-0.03248872,-0.12970182,0.10264779,0.049467
 04,0.69581046,0.00567349,-0.00641628,0.01099252,-0.00559586,-0.0043097
 1,-0.01224894,-0.00041801,0.02051843,0.00158500,-0.08218730,0.02303318
 ,-0.05995493,0.20986726,0.00254168,-0.04079035,-0.02346161,-0.00386381
 ,0.01592789,-0.00757915,0.01145554,-0.02494486,0.03534855,0.03440236,-
 0.16490975,0.09807041,-0.09696318,0.70428094,0.01929404,-0.06722460,0.
 04425538,-0.01151195,-0.00882169,-0.07327541,-0.00580221,0.08631780,0.
 03879727,-0.04800383,0.02789001,-0.28124175,0.11210750,-0.00821464,0.6
 9608152,-0.07036929,0.04085528,-0.00747254,0.00010670,0.00984147,-0.00
 472977,-0.00100413,0.00057947,0.00256844,0.00338799,-0.00493442,-0.008
 71613,-0.08166208,-0.00892457,-0.02361424,0.18627970,0.02839340,-0.348
 37375,-0.04165471,0.02003328,-0.03501737,0.07948568,-0.00058351,-0.048
 05161,-0.03726378,-0.01043990,0.06384622,-0.01463152,0.00500343,-0.152
 77015,-0.03391317,-0.06417711,0.74723283,-0.01880643,0.03377634,-0.138
 53335,0.00394393,0.02484627,0.04054456,0.00208964,-0.03407611,-0.01733
 308,-0.01219210,0.02411390,-0.05139652,-0.01168094,-0.10698588,-0.2318
 8928,0.09118217,-0.00689380,0.66438474,-0.04003402,-0.00934068,-0.0200
 8077,0.00373155,-0.00397177,-0.00601234,0.00402864,0.00184326,-0.00147
 451,-0.00106426,-0.00031708,0.00038476,0.00668769,0.00116625,-0.001920
 65,0.00610784,0.00411330,0.00273104,0.02849338,-0.00841079,-0.14245414
 ,-0.13130495,0.00033264,0.01326630,0.00950675,0.00142293,-0.00075510,0
 .00356153,0.00016700,-0.00126620,0.00099486,0.00157373,-0.00443172,0.0
 0074032,-0.00207738,-0.01080111,-0.02560730,0.00797726,0.14789852,-0.0
 2094407,-0.12965471,-0.26006839,-0.00184051,-0.01670917,-0.01823570,-0
 .00191166,0.00383748,-0.00304417,0.00024251,0.00059819,0.00044681,-0.0
 0130781,0.00122983,0.00093018,-0.00067672,0.00216957,0.00443395,0.0239
 8634,0.14267041,0.27294056,0.00485876,-0.00019505,-0.00078229,0.004118
 46,0.00150656,-0.00321655,-0.05499859,0.03377897,-0.06182771,0.0033698
 4,0.00136419,-0.00321015,0.00689370,0.00157993,-0.00107547,-0.00125427
 ,-0.00020106,0.00013417,0.00082318,0.00021781,-0.00019908,0.04514521,0
 .00021830,-0.00167454,-0.00352228,-0.00361868,0.01322636,-0.01269363,0
 .03398929,-0.12116639,0.11689477,0.00666999,-0.00854138,0.02592062,0.0
 0142723,-0.00441360,-0.00116386,-0.00006905,-0.00126587,-0.00054750,-0
 .00011110,0.00069360,-0.00089537,-0.03794228,0.12496740,-0.00096288,-0
 .00408730,-0.00250527,-0.00645440,0.01417268,-0.01816105,-0.06175968,0
 .11486868,-0.27302241,0.00059052,-0.00200663,0.00598449,-0.00094602,-0
 .00148213,0.00155864,0.00030573,-0.00037737,0.00003681,-0.00041120,0.0
 0070989,-0.00079864,0.06786130,-0.12589862,0.28493202,-0.00112062,0.00
 043413,-0.00019698,0.00641592,0.00199633,-0.00065233,0.00345359,0.0017
 5627,0.00444681,-0.03904155,-0.00709322,-0.02423178,0.00431675,-0.0046
 6285,-0.00573944,0.00537050,0.00146287,-0.00261268,-0.00023466,-0.0000
 2458,0.00005222,-0.00429335,-0.00087168,0.00091477,0.02824223,0.000154
 18,-0.00060596,0.00077269,0.00196576,-0.00462462,0.00155220,-0.0030635
 6,-0.01281053,-0.02812915,-0.00813800,-0.13646738,-0.12466124,0.001595
 73,0.00943883,0.01302346,0.00161351,-0.00101489,0.00244041,-0.00005207
 ,-0.00000188,-0.00006258,-0.00074033,0.00117621,0.00049234,0.00773278,
 0.14299929,-0.00001764,0.00109679,-0.00019726,-0.00095528,0.00052850,0
 .00201776,0.00003173,0.00165033,0.00467522,-0.02372752,-0.12425605,-0.
 25890705,-0.00158079,-0.01758081,-0.01917193,-0.00226054,0.00321682,-0
 .00200784,0.00005368,-0.00003200,-0.00003039,0.00097044,-0.00016816,0.
 00049151,0.02683792,0.13530572,0.27262376,-0.00398499,0.00951136,-0.00
 004660,-0.08653262,0.00586507,-0.00512973,-0.00181397,0.00022579,0.005
 40016,0.00828527,-0.00122197,-0.00166497,-0.00183543,0.00201919,-0.001
 09649,0.00621186,0.00000107,-0.00380466,-0.00405514,-0.00052408,0.0005
 0496,-0.00473921,-0.00084388,-0.00011722,0.00122455,-0.00024790,-0.000
 20670,0.28766767,0.00864610,-0.03832436,0.02104116,0.00658138,-0.12944
 973,0.00089640,0.00170093,-0.04288513,-0.01889443,-0.00362966,0.012228
 71,-0.01017957,0.00175219,-0.01620037,0.00117852,0.00106076,0.01286360
 ,0.01123164,-0.00129997,0.00078955,-0.00313425,-0.00003488,0.00100034,
 0.00283892,0.00008909,0.00032745,0.00044237,-0.05327836,0.67955827,-0.
 00110512,0.02694179,0.01174309,-0.00517403,-0.00066710,-0.11146244,0.0
 0649842,-0.02406616,0.01406628,-0.00193651,-0.00659160,-0.00636482,-0.
 00071478,-0.00061675,-0.00537721,-0.00268538,0.00392173,-0.00456364,0.
 00011548,0.00068249,-0.00331605,0.00038116,-0.00051141,-0.00339113,0.0
 0012938,-0.00173272,0.00028030,0.14223033,0.01856206,0.95022578,0.0032
 7481,0.00099112,0.00107435,0.01610110,0.01518703,-0.01338616,0.0010928
 5,-0.00166561,-0.00188034,-0.00086228,0.00074269,-0.00020412,0.0003631
 7,-0.00146185,-0.00012549,-0.00064458,0.00088828,0.00083091,0.00045428
 ,-0.00032413,0.00016084,-0.00000230,0.00052270,0.00052216,-0.00005110,
 0.00007092,0.00003250,-0.11036953,0.05488699,-0.09332098,0.06852432,-0
 .00029498,-0.00374410,-0.00716121,0.01784792,-0.03675850,0.04968153,0.
 00095898,-0.00194411,0.00220051,0.00074528,-0.00095311,0.00229631,-0.0
 0010761,0.00423207,0.00181893,0.00003629,-0.00348626,-0.00157609,0.000
 11205,0.00049050,0.00014079,0.00070980,-0.00414614,0.00093403,-0.00000
 249,-0.00019091,-0.00017228,0.05512739,-0.23509653,0.16867573,-0.06935
 632,0.23656013,0.00000345,-0.00058305,0.00336987,-0.01147910,0.0358177
 0,-0.01172218,-0.00018234,-0.01037025,-0.00696563,-0.00071576,0.003799
 64,-0.00003823,0.00055729,-0.00396903,0.00067936,0.00017843,0.00266083
 ,0.00209243,0.00020840,-0.00148630,0.00125603,0.00073438,-0.00016093,0
 .00316354,-0.00007027,0.00024533,0.00001689,-0.09293574,0.16705657,-0.
 42455094,0.13664999,-0.20148867,0.55992069,0.00081903,0.00239370,-0.00
 124186,0.02112265,0.00090018,0.00007707,0.00312104,0.00104693,-0.00092
 558,-0.00101147,-0.00010997,0.00076356,0.00021603,0.00032696,0.0001835
 6,-0.00040380,-0.00069911,0.00038931,-0.00016532,0.00063588,0.00071237
 ,0.00044069,0.00025992,0.00017281,-0.00053634,0.00000035,0.00008621,-0
 .09079206,-0.01516833,-0.04363002,0.02281906,-0.00638149,-0.03312932,0
 .04437561,-0.00024624,-0.00201230,-0.00264164,-0.00228991,-0.04198453,
 -0.05143228,0.00227685,-0.00292156,0.00761411,0.00072461,-0.00438485,-
 0.00010430,-0.00075184,0.00401145,-0.00190570,-0.00059129,-0.00088807,
 -0.00348730,0.00044625,-0.00452325,-0.00051132,-0.00007433,0.00056721,
 -0.00001133,0.00010792,-0.00095672,-0.00000986,-0.01531154,-0.26008458
 ,-0.18765674,-0.00182002,0.05056170,0.00545917,0.01693540,0.26720824,-
 0.00273542,0.00941936,-0.00691205,-0.00204983,-0.03619723,-0.01160337,
 -0.00011459,0.00069781,0.00348374,0.00120294,-0.00204123,0.00229177,-0
 .00047995,0.00416140,-0.00013243,0.00044584,-0.00344416,-0.00091898,0.
 00058018,0.00046406,0.00327082,-0.00010355,0.00145564,0.00127945,0.000
 15775,-0.00023503,-0.00005470,-0.04377949,-0.18679586,-0.41537111,-0.0
 3011689,-0.01694017,-0.12744313,0.07645286,0.23312306,0.55010840,0.003
 85012,0.00281816,-0.00229621,-0.00005620,-0.00215468,0.00152591,0.0051
 1443,0.00097086,-0.00397110,0.00716256,0.01562541,0.00046651,-0.062862
 46,0.06808887,-0.02855246,0.00946407,-0.00460653,0.00091043,-0.0003962
 3,-0.00014507,0.00003987,-0.00013542,0.00048270,0.00009895,-0.00328779
 ,-0.00093322,0.00149162,-0.00091024,0.00166137,0.00010182,0.00020602,-
 0.00044255,0.00055733,0.00003683,-0.00033301,-0.00030567,0.28443851,-0
 .00164589,0.01474556,-0.00495874,0.00277588,-0.01817753,0.00373070,0.0
 0056145,0.00950114,-0.00096764,0.01066587,-0.03755392,0.01700863,0.024
 63572,-0.29954373,0.00608312,0.00726870,-0.05446739,-0.01208301,0.0002
 5257,-0.00042993,0.00010431,0.00005237,-0.00034029,-0.00001933,-0.0013
 8712,0.00192612,-0.00075621,-0.00233596,0.01592038,0.00029157,0.001358
 40,-0.00444806,0.00345641,-0.00009863,-0.00441978,-0.00342522,-0.19954
 657,0.58545544,-0.00239342,-0.00137397,-0.00808035,0.00004403,0.004624
 27,0.00332308,-0.00102711,-0.00629550,-0.00694192,-0.00781351,0.046437
 31,-0.00013001,-0.02079419,-0.01059565,-0.11877300,0.00177333,-0.03659
 854,-0.00049916,0.00041815,-0.00123925,0.00032451,-0.00012081,0.001205
 26,0.00015926,0.00056227,0.00062169,0.00188259,0.00050257,-0.00324979,
 -0.00029566,-0.00013522,0.00064534,-0.00022880,0.00010647,0.00102071,0
 .00131917,0.19927106,0.10552874,0.71180266,0.00135183,-0.00121878,0.00
 051603,-0.00009831,0.00120299,-0.00069305,-0.00073205,-0.00026824,0.00
 007578,-0.00117444,0.00090674,0.00011999,-0.00304629,-0.00698627,0.004
 98024,0.00227697,0.00331787,0.00008557,-0.00037255,0.00000118,0.000052
 28,0.00005642,0.00005164,-0.00001124,0.00040377,0.00016915,-0.00062442
 ,0.00027276,-0.00115163,-0.00006810,-0.00016244,0.00033351,-0.00028090
 ,-0.00002285,0.00027434,0.00023208,-0.02811139,0.05286852,0.03808680,0
 .02683583,-0.00031410,-0.00036146,-0.00173921,0.00004334,0.00077923,0.
 00016572,-0.00052585,-0.00062780,0.00004854,-0.00164550,0.00283136,-0.
 00164658,0.00299674,-0.01959389,-0.03712174,0.00225936,-0.00527025,0.0
 0312570,-0.00003497,-0.00040753,0.00010763,0.00003943,0.00006519,-0.00
 000147,0.00069540,0.00002216,0.00137531,0.00017449,-0.00067795,-0.0000
 3981,-0.00006199,0.00020297,-0.00006800,0.00000353,0.00026354,0.000269
 53,0.03410435,-0.12947092,-0.14698819,-0.03422189,0.14460354,-0.000213
 19,-0.00062654,0.00023971,-0.00019721,0.00105187,0.00015539,-0.0004083
 7,-0.00092433,-0.00036005,-0.00051120,0.00308938,0.00176917,0.00222518
 ,0.00183282,0.00533918,-0.00060550,0.00284446,0.00040538,0.00012287,0.
 00008434,0.00004171,0.00002436,0.00007717,-0.00001109,0.00043861,-0.00
 037421,-0.00041552,0.00026157,-0.00082304,-0.00002336,-0.00008575,0.00
 020936,-0.00022561,-0.00002857,0.00018722,0.00015476,0.01093468,-0.165
 60885,-0.37047683,-0.02033807,0.17041935,0.37970165,-0.00012767,-0.001
 78332,0.00018608,-0.00040285,0.00172852,-0.00063117,0.00153790,-0.0005
 7402,0.00037346,0.00048634,-0.00044160,-0.00025741,-0.00368798,-0.0061
 1756,0.00280491,0.00003997,0.00308827,-0.00190927,0.00010081,-0.000014
 36,0.00003193,-0.00000541,-0.00005907,0.00002765,-0.00048759,-0.000098
 55,-0.00003503,0.00013822,-0.00138767,-0.00003991,-0.00012182,0.000337
 11,-0.00028231,0.00000784,0.00032213,0.00031466,-0.21072720,0.10798559
 ,-0.21062734,0.00243171,-0.00395732,0.00839645,0.21208051,-0.00040069,
 -0.00018100,0.00042581,-0.00005543,0.00060018,0.00000994,-0.00005326,-
 0.00051811,0.00152828,0.00088987,-0.00499919,-0.00296036,0.02662124,-0
 .01421635,0.02949073,0.00067231,-0.00043448,0.00224737,0.00010296,0.00
 001508,-0.00007063,-0.00001000,-0.00037989,-0.00005507,0.00011245,0.00
 012796,0.00003178,0.00009670,-0.00064230,0.00011877,-0.00006730,0.0002
 1033,-0.00027751,-0.00000398,0.00016599,0.00003216,0.08499890,-0.08429
 454,0.05400433,-0.01457716,0.00670168,-0.01036671,-0.09795940,0.095655
 14,-0.00023839,0.00231867,-0.00068817,0.00046593,-0.00305026,-0.000239
 02,-0.00070052,0.00245467,0.00009466,-0.00050943,-0.00289209,0.0033205
 6,-0.00073990,0.01346574,-0.00117804,0.00233734,-0.00556039,0.00099918
 ,-0.00008564,-0.00016930,0.00000554,0.00015758,0.00003254,0.00000326,0
 .00001172,-0.00009076,0.00026405,-0.00030332,0.00247439,0.00004976,0.0
 0014586,-0.00053673,0.00045826,-0.00002677,-0.00067506,-0.00063898,-0.
 17871761,0.05318358,-0.21782890,-0.02146168,0.01147431,-0.01638970,0.1
 9830213,-0.07366288,0.23460714,0.00515288,0.00965249,-0.00547903,0.007
 67390,-0.00174943,-0.00163483,-0.00220383,0.00370811,-0.00137598,0.005
 21476,-0.00224961,0.00281522,0.00343862,0.00889465,-0.01354940,-0.0605
 0197,-0.00057734,-0.03174092,-0.00452962,-0.00106592,0.00097301,-0.000
 29226,-0.00017093,0.00022834,-0.00017832,-0.00006650,-0.00010300,0.001
 26116,-0.00099885,-0.00077004,-0.00065440,0.00060974,0.00018951,0.0000
 6542,0.00060020,0.00038231,-0.00414209,-0.00540994,0.00212753,0.000504
 96,0.00025728,0.00024896,0.00018060,-0.00057463,-0.00057179,0.19516064
 ,0.01397216,-0.02935659,0.04490534,-0.00074585,0.00023335,-0.00549702,
 0.00108330,-0.00335195,0.00396280,-0.00017536,-0.00200787,-0.00753026,
 -0.00226521,0.00492335,-0.00892783,0.02023285,-0.15574738,0.06117743,-
 0.00068805,0.00251886,0.00075259,-0.00007241,0.00033788,-0.00006140,-0
 .00035713,0.00072747,-0.00083989,0.00044026,0.00028033,0.00191569,0.00
 020279,-0.00148038,0.00006249,0.00005766,-0.00059637,-0.00007901,-0.00
 079265,0.00669455,-0.00864408,-0.00041105,0.00087868,-0.00108391,-0.00
 148759,0.00152087,0.00357185,0.18265124,0.66648895,-0.00332459,0.01197
 853,-0.00238328,0.00000216,-0.00243334,-0.00273523,-0.00122533,0.00625
 357,-0.00096957,0.00107529,-0.00889339,0.00324234,-0.01485091,0.017358
 24,-0.05186285,-0.06970960,0.08018366,-0.23664231,0.00094238,-0.001031
 56,0.00147447,0.00025592,-0.00002402,0.00021232,-0.00004909,0.00064384
 ,-0.00111730,0.00058693,-0.00323341,-0.00132164,-0.00033220,0.00136116
 ,0.00003829,-0.00001465,0.00127277,0.00116861,-0.00138524,-0.00012880,
 0.00112735,-0.00023031,0.00135148,-0.00049259,0.00056997,0.00026431,-0
 .00007755,0.03267810,0.04225736,0.67980466,-0.00008937,-0.00137890,0.0
 0088846,-0.00064475,-0.00037727,0.00013647,0.00017382,-0.00020204,0.00
 004505,0.00085601,0.00013049,-0.00040275,0.00184268,0.00206829,-0.0003
 0987,-0.00535681,-0.00417524,-0.01382921,0.00052182,0.00038936,0.00008
 504,0.00000409,0.00001604,0.00001190,-0.00023392,-0.00001727,0.0000048
 3,-0.00011774,0.00038020,0.00010363,0.00010520,-0.00022179,0.00008456,
 -0.00006649,-0.00021335,-0.00003809,0.00039348,0.00027397,0.00103071,0
 .00019714,-0.00014545,0.00016939,-0.00019278,-0.00089498,-0.00087901,-
 0.01260730,0.00467630,0.02495459,0.01746001,-0.00018087,0.00193533,0.0
 0191896,-0.00023884,-0.00046696,0.00049013,0.00006224,-0.00047382,-0.0
 0012240,-0.00033061,0.00119789,0.00002225,0.00151844,-0.00327421,0.004
 37692,0.00167332,0.01412887,0.01779481,0.00039580,-0.00072396,-0.00066
 674,0.00005271,-0.00004080,-0.00008555,0.00007125,-0.00007367,0.000254
 58,0.00011191,0.00023422,0.00060090,-0.00004783,0.00000600,-0.00024980
 ,-0.00008785,-0.00003821,-0.00037919,0.00027314,-0.00015224,-0.0014210
 6,0.00001045,0.00030206,-0.00018795,-0.00075713,0.00026105,0.00050231,
 -0.01884437,-0.19648192,-0.18545537,0.01155387,0.19863882,0.00050537,-
 0.00219894,0.00309376,-0.00045341,0.00015503,-0.00060130,0.00012549,0.
 00018753,0.00060893,-0.00020472,-0.00163509,-0.00070224,-0.00146844,0.
 00408621,-0.00305752,0.00233771,-0.02011272,-0.02705060,0.00009736,0.0
 0132165,0.00030539,0.00003770,0.00006380,0.00003460,-0.00005823,0.0002
 5233,-0.00030093,-0.00002125,0.00014740,-0.00002421,0.00005326,-0.0001
 7800,0.00008803,0.00003352,-0.00015468,0.00008896,0.00001357,0.0009515
 6,0.00068643,-0.00002018,-0.00014069,0.00011473,0.00021956,-0.00001076
 ,-0.00015469,-0.00866466,-0.17722911,-0.31444447,0.00598462,0.18909843
 ,0.33350682,-0.00059503,0.00036927,-0.00298280,0.00030852,0.00172842,0
 .00055249,0.00020877,-0.00146800,0.00035667,-0.00086976,0.00101395,-0.
 00137876,0.00199603,-0.00356364,0.00193126,0.00195133,0.01915803,-0.00
 572095,-0.00009740,-0.00013148,0.00003850,0.00001048,0.00004885,-0.000
 07147,0.00003791,0.00005502,0.00000198,0.00008946,0.00019033,-0.000115
 38,-0.00007236,-0.00001084,-0.00008759,-0.00002589,-0.00005619,-0.0000
 4513,-0.00003701,0.00172506,-0.00101132,-0.00061108,0.00033312,-0.0004
 3421,-0.00125059,0.00110241,0.00281348,-0.13354317,-0.21632126,0.03005
 661,-0.00224510,0.00476438,0.00148273,0.13474489,-0.00094588,0.0022614
 3,0.00227087,0.00096096,-0.00159543,0.00027793,-0.00031303,0.00090775,
 -0.00082233,0.00069191,-0.00104308,0.00110840,0.00013776,0.00227447,-0
 .00362658,-0.00531950,-0.02048295,0.01050313,-0.00059401,0.00012242,0.
 00009397,-0.00003143,-0.00006529,0.00006965,-0.00005945,0.00000108,-0.
 00008691,0.00019047,0.00015810,0.00017154,-0.00004587,-0.00001560,0.00
 009540,-0.00001116,0.00003207,-0.00008593,-0.00006950,-0.00094486,0.00
 231839,-0.00030135,-0.00024061,0.00019957,0.00117597,0.00040759,-0.002
 84058,-0.17466620,-0.29558183,0.03827497,-0.01186224,-0.01497845,0.005
 39604,0.19106256,0.32878317,-0.00057127,0.00114224,-0.00380607,-0.0009
 2422,-0.00057434,0.00030324,-0.00001801,0.00122629,-0.00023714,-0.0000
 3802,-0.00088957,0.00143118,-0.00069991,0.00493245,-0.00168211,0.01934
 142,0.02596740,-0.00206228,0.00034446,0.00013436,0.00006338,-0.0000213
 9,-0.00006402,0.00003371,0.00005934,-0.00006430,-0.00004917,-0.0003803
 7,0.00044092,-0.00030299,0.00011728,0.00008947,0.00009113,0.00001903,-
 0.00008683,-0.00009094,-0.00018345,-0.00239081,0.00262957,-0.00042081,
 -0.00059190,0.00047309,0.00255566,-0.00074956,-0.00260738,0.02424668,0
 .05128695,-0.07502127,-0.01804029,-0.02649123,0.00780832,-0.02538611,-
 0.05331752,0.07302571\\0.00000055,-0.00000172,0.00000038,-0.00000039,-
 0.00000001,-0.00000097,0.00000044,-0.00000023,0.00000100,-0.00000041,0
 .00000048,-0.00000108,0.00000009,-0.00000089,0.00000161,-0.00000085,0.
 00000123,-0.00000200,-0.00000004,0.00000031,0.00000030,-0.00000033,0.0
 0000045,-0.00000043,0.00000005,0.00000013,-0.00000002,-0.00000117,0.00
 000375,0.00000003,0.00000023,-0.00000110,0.00000155,-0.00000017,-0.000
 00073,-0.00000091,0.,0.00000057,0.00000034,0.00000037,-0.00000004,-0.0
 0000042,0.00000044,-0.00000052,0.,0.00000178,-0.00000149,0.00000077,-0
 .00000036,0.00000032,0.00000008,-0.00000023,-0.00000053,-0.00000021\\\
 @


 The chemist is a guest at the physicist's table and
 frequently dines well.
                   -- Richard Bersohn
 Job cpu time:  0 days  7 hours 24 minutes 38.4 seconds.
 File lengths (MBytes):  RWF=    309 Int=      0 D2E=      0 Chk=     14 Scr=      1
 Normal termination of Gaussian 09 at Thu Nov 24 22:35:05 2022.
