 hostname is         dlt14.abaxnet
 this is node-proc. number 0 running on node dlt14.abaxnet
 the total number of node-proc. spawned is   1

 ricc2 (dlt14.abaxnet) : TURBOMOLE V6.6( 19125 ) 27 May 2014 at 14:24:19
 Copyright (C) 2014 TURBOMOLE GmbH, Karlsruhe


    2023-01-23 09:25:58.275 



                              R I C C 2 - PROGRAM

                          the quantum chemistry groups
                             at the universities in
                           Karlsruhe, Bochum & Mainz
                                   Germany



   *-----------------------------------------------------------------------*
   |                     program will use  1 thread(s)                     |
   *-----------------------------------------------------------------------*


              +--------------------------------------------------+
              | Atomic coordinate, charge and isotop information |
              +--------------------------------------------------+

                    atomic coordinates            atom    charge  isotop
         -1.22090839   -1.92731514   -0.02014289    c      6.000     0
         -3.17197642   -0.20097726   -0.01636907    c      6.000     0
         -2.70277516    2.37820616   -0.01210276    c      6.000     0
         -0.25327787    3.22734129   -0.01489243    c      6.000     0
          1.77669833    1.52800448   -0.02174237    c      6.000     0
          1.26080724   -1.09213179   -0.02149425    c      6.000     0
         -1.63681557   -3.92362477   -0.01911391    h      1.000     0
         -4.27317439    3.67986738   -0.00732436    h      1.000     0
          0.12895339    5.23633651   -0.01720175    h      1.000     0
         -5.77031581   -1.10352522   -0.01355275    n      7.000     0
         -7.44825592    0.46569594   -0.00663803    o      8.000     0
         -6.12146491   -3.37280668   -0.01810688    o      8.000     0
          4.19674889    2.36616263   -0.06166714    n      7.000     0
          4.57709708    4.20893151    0.15971979    h      1.000     0
          5.62474900    1.12651075    0.11165468    h      1.000     0
          3.31113993   -2.83781081   -0.01482947    c      6.000     0
          5.08800835   -4.23839600   -0.00530028    c      6.000     0
          6.63476224   -5.52046896   -0.00089612    h      1.000     0
 
       center of nuclear mass  :   -1.10334183   -0.38219729   -0.01692723
       center of nuclear charge:   -0.99989128   -0.34034936   -0.01498692

              +--------------------------------------------------+
              |               basis set information              |
              +--------------------------------------------------+

              we will work with the 1s 3p 5d 7f 9g ... basis set
              ...i.e. with spherical basis functions...

   type   atoms  prim   cont   basis
   ---------------------------------------------------------------------------
    c        8     52     37   def2-TZVPD   [6s3p3d1f|12s6p3d1f]
    h        6     11      9   def2-TZVPD   [3s2p|5s2p]
    n        2     52     37   def2-TZVPD   [6s3p3d1f|12s6p3d1f]
    o        2     55     40   def2-TZVPD   [6s4p3d1f|12s7p3d1f]
   ---------------------------------------------------------------------------
   total:   18    696    504
   ---------------------------------------------------------------------------

   total number of primitive shells          :   74
   total number of contracted shells         :  188
   total number of cartesian basis functions :  576
   total number of SCF-basis functions       :  504



   =========================================================================


     restricted closed shell calculation for the wavefunction models:
               ADC(2)     - Algebraic Diagrammatic Construction to 2. Order (strict)


     global parameters for ricc2 program:

        hard restart (reuse of interm.) :  disabled
        soft restart (reuse of vectors) :  disabled
        threshold for vector function   :    0.100000E-06
        convergence threshold energy    :    0.100000E-07
        linear dependence threshold     :    0.100000E-13
        global print level              :      1
        maximum number of iterations    :   500
        maximum number DIIS vectors     :    10
        max. dim. of reduced space      :   100
        core memory limit (MB)          :   500
        disk space limit (MB)           :   none


   =========================================================================
     "cartesian on" in $drvopt is ignored by $ricc2

    der. integral neglect threshold  :  0.10E-08
    integral neglect threshold       :  0.58E-12
    integral storage threshold THIZE :  0.10E-04
    integral storage threshold THIME :         5


                  +------------------------------------------+
                  |     Auxiliary basis set information      |
                  +------------------------------------------+

              we will work with the 1s 3p 5d 7f 9g ... basis set
              ...i.e. with spherical basis functions...

   type   atoms  prim   cont   basis
   ---------------------------------------------------------------------------
    c        8     97     92   def2-TZVPD   [9s7p5d4f1g|9s7p6d4f1g]
    h        6     32     24   def2-TZVPD   [5s3p2d|5s4p3d]
    n        2     97     92   def2-TZVPD   [9s7p5d4f1g|9s7p6d4f1g]
    o        2     97     92   def2-TZVPD   [9s7p5d4f1g|9s7p6d4f1g]
   ---------------------------------------------------------------------------
   total:   18   1356   1248
   ---------------------------------------------------------------------------

   total number of primitive shells          :   93
   total number of contracted shells         :  372
   total number of cartesian basis functions : 1536
   total number of SCF-basis functions       : 1248


 symmetry group of the molecule :   c1 

 the group has the following generators :
   c1(z)

    1 symmetry operations found

 there are 1 real representations :   a   

 maximum number of shells which are related by symmetry :  1


 The symmetry information takes   1 MB

*---------------------------------------------------------------------*
|               simplified C1 algorithm will be applied               |
*---------------------------------------------------------------------*
  MOs are in ASCII format !


 reading orbital data $scfmo  from file mos . 

 orbital characterization : scfconv=7
 

         --------------------------------------------------------------
                   checking mo's by calculating trace(D*S)

              number of electrons : 
                 from trace(D*S)         :   83.999999999996
                 from occupation numbers :   84.000000000000

              molecular charge           :    0.000000000000
         --------------------------------------------------------------

 time elapsed for calculating density matrices :   0.027 sec
 all orbitals will be active in the correlation treatment


   Molecular Orbital Statistic:
   ============================

   -----------------------------
   orbitals in total:
   -----------------------------
    frozen occupied :      0
    active occupied :     42
    active virtual  :    462
    frozen virtual  :      0
    all together    :    504
   -----------------------------


     time in riccmos       cpu:  0.25 sec    wall:  0.42 sec    ratio:  0.6

     total memory allocated for calculation of (Q|P)**(-1/2) : 18 MiB


     calculation of (P|Q) ...
     time in lp2sym        cpu:  0.04 sec    wall:  0.04 sec    ratio:  1.0


     calculation of the Cholesky decomposition of (P|Q)**(-1) ...
     time in invmetri      cpu:  0.16 sec    wall:  0.28 sec    ratio:  0.6

   threshold for RMS(d[D]) in SCF was     :  0.10E-07
   integral neglect threshold             :  0.58E-12
   derivative integral neglect threshold  :  0.10E-08


 setting up bound for integral derivative estimation

 increment for numerical differentiation : 0.00050000

   =========================================================================

     Energy of reference wave function is  -565.1054924489000
     Maximum orbital residual is           0.2800516091593E-04


     Number of symmetry-nonredundant auxiliary basis functions:     1248

     Block lengths for integral files:
        frozen occupied (BOI):        0 MiB
        active occupied (BJI):        1 MiB
        active virtual  (BAI):        5 MiB
        frozen virtual  (BGI):        0 MiB
               general  (BTI):        5 MiB

   =========================================================================




   **************************************************************************
   *                                                                        *
   *          OPTIMIZATION OF THE GROUND STATE CLUSTER AMPLITUDES           *
   *                                                                        *
   **************************************************************************


   Iter.   MP2 energy       Norm(Omega)    Norm(t1)  Norm(t2)     cpu    wall
   ...........................................................................
    1   -567.4413073915    0.1744646197     0.00000   0.48999    1.13    1.35
   ...........................................................................


     time in total         cpu:  1 min  8 s  wall:  1 min 21 s  ratio:  0.8


     **********************************************************************
     *                                                                    *
     *   RHF  energy                             :   -565.1054924489      *
     *   MP2 correlation energy                  :     -2.3358149426      *
     *                                                                    *
     *   Final MP2 energy                        :   -567.4413073915      *
     *                                                                    *
     *   Norm of MP1 T2 amplitudes               :      0.4899901235      *
     *                                                                    *
     *   D1 diagnostic                           :      0.0576            *
     *                                                                    *
     **********************************************************************



 **************************************************************
 *                                                            *
 *    OPTIMIZATION OF THE EXCITED STATE CLUSTER AMPLITUDES    *
 *                                                            *
 **************************************************************


  preoptimize excitation energies/vectors using CCS:

  ==================================================


 ======== LINEAR CC RESPONSE SOLVER ========

    threshold for convergence: 0.10E-02
    maximum number of simultaneous jacoby matrix transformations: 15
                                                
     summary of start vectors generation:
     -------------------------------------------
     type of solution vectors      : RE0
     symmetry                      : a  
     number of vectors requested   :    15
     number of vectors generated   :    15
       -- guessed as rhs/(e_a-e_i) :    15
     -------------------------------------------
                                                

    Iter  #Vectors  time (min)    max. residual 
    --------------------------------------------
      1      15         3.40     0.15E+00  (  7)
      2      15         3.44     0.53E-01  (  8)
      3      15         3.42     0.68E-01  (  5)
      4      15         3.32     0.35E-01  (  5)
      5      15         3.46     0.18E+00  (  6)
  dimension of red. space became too large.
  try internal restart...
      6      15         3.43     0.17E+00  (  7)
                                                
     summary of start vectors generation:
     -------------------------------------------
     type of solution vectors      : RE0
     symmetry                      : a  
     number of vectors requested   :    15
     number of vectors generated   :    15
       -- restarted from file      :    15
     -------------------------------------------
                                                

    Iter  #Vectors  time (min)    max. residual 
    --------------------------------------------
      7      15         3.39     0.17E+00  (  7)
      8      13         3.08     0.67E-01  (  4)
      9      13         2.96     0.90E-01  ( 10)
     10      14         3.25     0.34E-01  (  8)
     11      11         2.63     0.10E-01  (  8)
     12       6         1.50     0.36E-02  (  8)
     13       4         0.93     0.13E-02  (  8)
     14       1         0.33     0.50E-03  ( 12)
    --------------------------------------------
    converged in 14 iterations

         Total time         38.55 minutes


 ===========================================




 Note that this is the intermediate result of a preoptimization!
 The convergence threshold was  0.1E-02 only!


 +==================================================================+
 | sym | multi | state |          CCS excitation energies           |
 |     |       |       +--------------------------------------------+
 |     |       |       |   Hartree    |     eV       |     cm-1     |
 +==================================================================+
 | a   |   1   |   1   |    0.1938883 |      5.27597 |    42553.553 |
 | a   |   1   |   2   |    0.1944568 |      5.29144 |    42678.343 |
 | a   |   1   |   3   |    0.1974955 |      5.37413 |    43345.261 |
 | a   |   1   |   4   |    0.2061417 |      5.60940 |    45242.864 |
 | a   |   1   |   5   |    0.2246568 |      6.11322 |    49306.463 |
 | a   |   1   |   6   |    0.2282235 |      6.21028 |    50089.279 |
 | a   |   1   |   7   |    0.2310580 |      6.28741 |    50711.368 |
 | a   |   1   |   8   |    0.2403485 |      6.54022 |    52750.403 |
 | a   |   1   |   9   |    0.2520031 |      6.85735 |    55308.297 |
 | a   |   1   |  10   |    0.2527901 |      6.87877 |    55481.020 |
 | a   |   1   |  11   |    0.2597550 |      7.06829 |    57009.637 |
 | a   |   1   |  12   |    0.2699134 |      7.34472 |    59239.139 |
 | a   |   1   |  13   |    0.2746944 |      7.47481 |    60288.447 |
 | a   |   1   |  14   |    0.2764354 |      7.52219 |    60670.550 |
 | a   |   1   |  15   |    0.2792792 |      7.59957 |    61294.694 |
 +==================================================================+




  preoptimize ADC(2) excitation energies/vectors using a quasi linear algorithm:
  ==============================================================================


 ======== LINEAR CC RESPONSE SOLVER ========

    threshold for convergence: 0.10E-02
    maximum number of simultaneous jacoby matrix transformations: 15
                                                
     summary of start vectors generation:
     -------------------------------------------
     type of solution vectors      : RE0
     symmetry                      : a  
     number of vectors requested   :    15
     number of vectors generated   :    15
       -- restarted from file      :    15
     -------------------------------------------
                                                

    Iter  #Vectors  time (min)    max. residual 
    --------------------------------------------
 threshold for this macro iteration:  4.843674265804868E-002
      1      15        26.88     0.94E-01  (  1)
 ...adapted threshold to:  5.992514002611027E-002
      2       7        12.51     0.47E-01  ( 12)
                                                
     summary of start vectors generation:
     -------------------------------------------
     type of solution vectors      : RE0
     symmetry                      : a  
     number of vectors requested   :    15
     number of vectors generated   :    15
       -- restarted from file      :    15
     -------------------------------------------
                                                

    Iter  #Vectors  time (min)    max. residual 
    --------------------------------------------
 threshold for this macro iteration:  6.406880805080284E-003
      3      15        26.28     0.48E-01  ( 12)
 ...adapted threshold to:  1.684384472020894E-002
      4      15        27.00     0.54E-01  ( 14)
 ...adapted threshold to:  2.021820121326606E-002
      5       7        12.64     0.60E-01  ( 12)
 ...adapted threshold to:  2.033383571668557E-002
      6       2         3.74     0.29E-01  (  9)
 ...adapted threshold to:  2.036198594570904E-002
      7       1         2.10     0.17E-01  ( 13)
                                                
     summary of start vectors generation:
     -------------------------------------------
     type of solution vectors      : RE0
     symmetry                      : a  
     number of vectors requested   :    15
     number of vectors generated   :    15
       -- restarted from file      :    15
     -------------------------------------------
                                                

    Iter  #Vectors  time (min)    max. residual 
    --------------------------------------------
 threshold for this macro iteration:  3.786718452831461E-003
      8      15        26.20     0.17E-01  ( 13)
      9      12        21.06     0.15E-01  ( 13)
 ...adapted threshold to:  5.596955007068971E-003
     10      12        21.17     0.63E-01  ( 14)
 ...adapted threshold to:  1.146344830050577E-002
     11       7        12.31     0.25E-01  ( 14)
 ...adapted threshold to:  1.295590780165493E-002
     12       4         7.44     0.33E-01  (  9)
 ...adapted threshold to:  1.539713581887805E-002
     13       3         5.42     0.48E-01  (  8)
 ...adapted threshold to:  1.586604688507576E-002
     14       4         7.25     0.20E-01  (  8)
 ...adapted threshold to:  1.594238682867455E-002
     15       1         2.06     0.95E-02  (  7)
                                                
     summary of start vectors generation:
     -------------------------------------------
     type of solution vectors      : RE0
     symmetry                      : a  
     number of vectors requested   :    15
     number of vectors generated   :    15
       -- restarted from file      :    15
     -------------------------------------------
                                                

    Iter  #Vectors  time (min)    max. residual 
    --------------------------------------------
 threshold for this macro iteration:  7.872406576676011E-003
     16      15        26.29     0.11E-01  ( 15)
     17       1         2.09     0.15E-01  ( 15)
     18       4         7.15     0.54E-02  ( 15)
                                                
     summary of start vectors generation:
     -------------------------------------------
     type of solution vectors      : RE0
     symmetry                      : a  
     number of vectors requested   :    15
     number of vectors generated   :    15
       -- restarted from file      :    15
     -------------------------------------------
                                                

    Iter  #Vectors  time (min)    max. residual 
    --------------------------------------------
 threshold for this macro iteration:  2.165902683125637E-003
     19      15        26.79     0.11E-01  ( 13)
 ...adapted threshold to:  2.217133769886720E-003
     20       1         2.07     0.66E-02  ( 13)
 ...adapted threshold to:  2.224158158313394E-003
     21       1         2.06     0.39E-02  ( 13)
 ...adapted threshold to:  2.225028457608330E-003
     22       2         3.75     0.21E-02  ( 15)
                                                
     summary of start vectors generation:
     -------------------------------------------
     type of solution vectors      : RE0
     symmetry                      : a  
     number of vectors requested   :    15
     number of vectors generated   :    15
       -- restarted from file      :    15
     -------------------------------------------
                                                

    Iter  #Vectors  time (min)    max. residual 
    --------------------------------------------
 threshold for this macro iteration:  1.000000000000000E-003
     23      15        27.61     0.45E-02  ( 13)
     24       2         3.72     0.38E-02  ( 13)
     25       2         3.71     0.17E-02  ( 13)
     26       1         2.06     0.79E-03  ( 15)
    --------------------------------------------
    converged in 26 iterations

         Total time        321.41 minutes


 ===========================================




 Note that this is the intermediate result of a preoptimization!
 The convergence threshold was  0.1E-02 only!


 +==================================================================+
 | sym | multi | state |          ADC(2) excitation energies        |
 |     |       |       +--------------------------------------------+
 |     |       |       |   Hartree    |     eV       |     cm-1     |
 +==================================================================+
 | a   |   1   |   1   |    0.1387853 |      3.77654 |    30459.846 |
 | a   |   1   |   2   |    0.1576781 |      4.29064 |    34606.349 |
 | a   |   1   |   3   |    0.1596096 |      4.34320 |    35030.250 |
 | a   |   1   |   4   |    0.1634655 |      4.44812 |    35876.538 |
 | a   |   1   |   5   |    0.1992404 |      5.42161 |    43728.204 |
 | a   |   1   |   6   |    0.2065564 |      5.62069 |    45333.887 |
 | a   |   1   |   7   |    0.2169389 |      5.90321 |    47612.593 |
 | a   |   1   |   8   |    0.2221662 |      6.04545 |    48759.840 |
 | a   |   1   |   9   |    0.2282173 |      6.21011 |    50087.911 |
 | a   |   1   |  10   |    0.2315834 |      6.30171 |    50826.687 |
 | a   |   1   |  11   |    0.2350017 |      6.39472 |    51576.914 |
 | a   |   1   |  12   |    0.2369632 |      6.44810 |    52007.402 |
 | a   |   1   |  13   |    0.2381782 |      6.48116 |    52274.080 |
 | a   |   1   |  14   |    0.2420017 |      6.58520 |    53113.242 |
 | a   |   1   |  15   |    0.2481982 |      6.75382 |    54473.217 |
 +==================================================================+





  solve for ADC(2) excitation energies/vectors using a DIIS algorithm:
  =================================================================
                                                
     summary of start vectors generation:
     -------------------------------------------
     type of solution vectors      : RE0
     symmetry                      : a  
     number of vectors requested   :    15
     number of vectors generated   :    15
       -- restarted from file      :    15
     -------------------------------------------
                                                


 ========= DIIS CC RESPONSE SOLVER =========

    threshold for convergence:0.10E-05
    max. nb. of DIIS vectors :      10
    maximum number of simultaneous jacoby matrix transformations: 15

    Iter  #Vectors  time (min)   residual
    --------------------------------------
      1      15        26.24     0.13E-02  (  9)    0.24E+00
      2      15        26.29     0.68E-03  (  9)    0.11E-01
      3      15        37.07     0.37E-03  ( 15)    0.17E-01
      4      15        27.32     0.24E-03  ( 15)    0.11E-01
      5      14        24.56     0.12E-03  ( 15)    0.81E-02
      6      12        21.06     0.68E-04  ( 15)    0.64E-02
      7      10        17.46     0.46E-04  ( 15)    0.67E-02
      8       8        14.13     0.32E-04  ( 15)    0.65E-02
      9       8        13.78     0.22E-04  ( 15)    0.65E-02
     10       5         9.61     0.16E-04  ( 15)    0.65E-02
     11       4         7.25     0.98E-05  ( 15)    0.65E-02
     12       4         7.19     0.48E-05  ( 15)    0.65E-02
     13       2         3.81     0.29E-05  ( 15)    0.65E-02
     14       1         2.11     0.18E-05  ( 15)    0.65E-02
     15       1         2.06     0.10E-05  ( 15)    0.65E-02
     16       1         2.05     0.63E-06  ( 15)    0.65E-02
    --------------------------------------
    converged in  16 iterations

   Total time        241.99 minutes


 ===========================================





 +================================================================================+
 | sym | multi | state |          ADC(2) excitation energies    |  %t1   |  %t2   |
 |     |       |       +----------------------------------------+--------+--------+
 |     |       |       |   Hartree    |    eV      |    cm-1    |    %   |    %   |
 +================================================================================+
 | a   |   1   |   1   |    0.1387851 |    3.77653 |  30459.811 |  89.70 |  10.30 |
 | a   |   1   |   2   |    0.1576772 |    4.29061 |  34606.140 |  88.43 |  11.57 |
 | a   |   1   |   3   |    0.1596090 |    4.34318 |  35030.122 |  89.14 |  10.86 |
 | a   |   1   |   4   |    0.1634655 |    4.44812 |  35876.525 |  90.10 |   9.90 |
 | a   |   1   |   5   |    0.1992400 |    5.42160 |  43728.123 |  88.37 |  11.63 |
 | a   |   1   |   6   |    0.2065565 |    5.62069 |  45333.915 |  91.67 |   8.33 |
 | a   |   1   |   7   |    0.2169379 |    5.90318 |  47612.370 |  89.89 |  10.11 |
 | a   |   1   |   8   |    0.2221411 |    6.04477 |  48754.344 |  89.23 |  10.77 |
 | a   |   1   |   9   |    0.2280953 |    6.20679 |  50061.131 |  83.60 |  16.40 |
 | a   |   1   |  10   |    0.2315870 |    6.30180 |  50827.466 |  89.54 |  10.46 |
 | a   |   1   |  11   |    0.2350007 |    6.39470 |  51576.703 |  91.63 |   8.37 |
 | a   |   1   |  12   |    0.2369611 |    6.44804 |  52006.960 |  91.34 |   8.66 |
 | a   |   1   |  13   |    0.2380207 |    6.47687 |  52239.497 |  90.10 |   9.90 |
 | a   |   1   |  14   |    0.2420068 |    6.58534 |  53114.363 |  90.64 |   9.36 |
 | a   |   1   |  15   |    0.2481769 |    6.75324 |  54468.523 |  86.78 |  13.22 |
 +================================================================================+


       Energy:     0.1387851 H      3.77653 eV    30459.811 cm-1

     +=======================================================================+
     | type: RE0                    symmetry: a               state:    1    |
     +-----------------------+-----------------------+-----------------------+
     | occ. orb.  index spin | vir. orb.  index spin |  coeff/|amp|     %    |
     +=======================+=======================+=======================+
     |   37 a       37       |   43 a       43       |   0.88324      78.0   |
     |   37 a       37       |   55 a       55       |  -0.26323       6.9   |
     |   37 a       37       |   62 a       62       |   0.16373       2.7   |
     |   37 a       37       |   60 a       60       |  -0.15243       2.3   |
     |   37 a       37       |   44 a       44       |  -0.12421       1.5   |
     |   37 a       37       |   46 a       46       |   0.11426       1.3   |
     |   37 a       37       |   53 a       53       |  -0.09520       0.9   |
     |   37 a       37       |   52 a       52       |   0.09307       0.9   |
     |   37 a       37       |   59 a       59       |  -0.07437       0.6   |
     +=======================+=======================+=======================+
     norm of printed elements:  0.95118


       Energy:     0.1576772 H      4.29061 eV    34606.140 cm-1

     +=======================================================================+
     | type: RE0                    symmetry: a               state:    2    |
     +-----------------------+-----------------------+-----------------------+
     | occ. orb.  index spin | vir. orb.  index spin |  coeff/|amp|     %    |
     +=======================+=======================+=======================+
     |   42 a       42       |   43 a       43       |   0.72868      53.1   |
     |   42 a       42       |   46 a       46       |   0.56802      32.3   |
     |   41 a       41       |   46 a       46       |  -0.23064       5.3   |
     |   38 a       38       |   43 a       43       |  -0.11262       1.3   |
     |   41 a       41       |   43 a       43       |   0.09514       0.9   |
     |   42 a       42       |   53 a       53       |   0.09031       0.8   |
     |   42 a       42       |   44 a       44       |  -0.08790       0.8   |
     |   42 a       42       |   52 a       52       |  -0.07349       0.5   |
     |   42 a       42       |   60 a       60       |  -0.05876       0.3   |
     |   41 a       41       |   60 a       60       |   0.05862       0.3   |
     +=======================+=======================+=======================+
     norm of printed elements:  0.95672


       Energy:     0.1596090 H      4.34318 eV    35030.122 cm-1

     +=======================================================================+
     | type: RE0                    symmetry: a               state:    3    |
     +-----------------------+-----------------------+-----------------------+
     | occ. orb.  index spin | vir. orb.  index spin |  coeff/|amp|     %    |
     +=======================+=======================+=======================+
     |   42 a       42       |   46 a       46       |   0.65917      43.5   |
     |   42 a       42       |   43 a       43       |  -0.57787      33.4   |
     |   41 a       41       |   43 a       43       |   0.37551      14.1   |
     |   42 a       42       |   55 a       55       |   0.09795       1.0   |
     |   42 a       42       |   44 a       44       |   0.09140       0.8   |
     |   41 a       41       |   53 a       53       |   0.07339       0.5   |
     |   41 a       41       |   52 a       52       |  -0.06036       0.4   |
     |   41 a       41       |   46 a       46       |  -0.05748       0.3   |
     |   36 a       36       |   46 a       46       |  -0.05608       0.3   |
     |   41 a       41       |   44 a       44       |  -0.05193       0.3   |
     |   42 a       42       |   62 a       62       |  -0.05058       0.3   |
     |   38 a       38       |   46 a       46       |  -0.04851       0.2   |
     +=======================+=======================+=======================+
     norm of printed elements:  0.95048


       Energy:     0.1634655 H      4.44812 eV    35876.525 cm-1

     +=======================================================================+
     | type: RE0                    symmetry: a               state:    4    |
     +-----------------------+-----------------------+-----------------------+
     | occ. orb.  index spin | vir. orb.  index spin |  coeff/|amp|     %    |
     +=======================+=======================+=======================+
     |   35 a       35       |   43 a       43       |   0.87361      76.3   |
     |   35 a       35       |   55 a       55       |  -0.25180       6.3   |
     |   35 a       35       |   62 a       62       |   0.15290       2.3   |
     |   35 a       35       |   60 a       60       |  -0.14374       2.1   |
     |   35 a       35       |   44 a       44       |  -0.12267       1.5   |
     |   35 a       35       |   46 a       46       |   0.10952       1.2   |
     |   40 a       40       |   43 a       43       |  -0.10077       1.0   |
     |   36 a       36       |   43 a       43       |   0.08837       0.8   |
     |   35 a       35       |   53 a       53       |  -0.08626       0.7   |
     |   35 a       35       |   52 a       52       |   0.08515       0.7   |
     |   32 a       32       |   43 a       43       |  -0.08171       0.7   |
     |   35 a       35       |   59 a       59       |  -0.07013       0.5   |
     |   35 a       35       |   73 a       73       |   0.06835       0.5   |
     |   37 a       37       |   43 a       43       |  -0.06753       0.5   |
     +=======================+=======================+=======================+
     norm of printed elements:  0.95115


       Energy:     0.1992400 H      5.42160 eV    43728.123 cm-1

     +=======================================================================+
     | type: RE0                    symmetry: a               state:    5    |
     +-----------------------+-----------------------+-----------------------+
     | occ. orb.  index spin | vir. orb.  index spin |  coeff/|amp|     %    |
     +=======================+=======================+=======================+
     |   41 a       41       |   43 a       43       |   0.81364      66.2   |
     |   42 a       42       |   46 a       46       |  -0.34136      11.7   |
     |   39 a       39       |   43 a       43       |  -0.31459       9.9   |
     |   42 a       42       |   43 a       43       |   0.14253       2.0   |
     |   36 a       36       |   46 a       46       |   0.12532       1.6   |
     |   41 a       41       |   44 a       44       |  -0.11051       1.2   |
     |   42 a       42       |   53 a       53       |   0.07319       0.5   |
     |   42 a       42       |   52 a       52       |  -0.06432       0.4   |
     |   41 a       41       |   55 a       55       |  -0.06346       0.4   |
     |   42 a       42       |   55 a       55       |   0.05687       0.3   |
     |   41 a       41       |   53 a       53       |   0.05678       0.3   |
     |   39 a       39       |   55 a       55       |   0.05602       0.3   |
     |   39 a       39       |   46 a       46       |  -0.05179       0.3   |
     +=======================+=======================+=======================+
     norm of printed elements:  0.95154


       Energy:     0.2065565 H      5.62069 eV    45333.915 cm-1

     +=======================================================================+
     | type: RE0                    symmetry: a               state:    6    |
     +-----------------------+-----------------------+-----------------------+
     | occ. orb.  index spin | vir. orb.  index spin |  coeff/|amp|     %    |
     +=======================+=======================+=======================+
     |   42 a       42       |   44 a       44       |   0.87725      77.0   |
     |   36 a       36       |   44 a       44       |  -0.18403       3.4   |
     |   41 a       41       |   44 a       44       |  -0.17049       2.9   |
     |   42 a       42       |   48 a       48       |  -0.15674       2.5   |
     |   42 a       42       |   47 a       47       |  -0.14312       2.0   |
     |   42 a       42       |   66 a       66       |   0.12720       1.6   |
     |   42 a       42       |   43 a       43       |   0.11774       1.4   |
     |   42 a       42       |   45 a       45       |   0.09980       1.0   |
     |   42 a       42       |   67 a       67       |   0.08943       0.8   |
     |   36 a       36       |   47 a       47       |   0.08692       0.8   |
     |   42 a       42       |   74 a       74       |   0.08486       0.7   |
     |   41 a       41       |   45 a       45       |  -0.07480       0.6   |
     |   33 a       33       |   44 a       44       |   0.06578       0.4   |
     +=======================+=======================+=======================+
     norm of printed elements:  0.95023


       Energy:     0.2169379 H      5.90318 eV    47612.370 cm-1

     +=======================================================================+
     | type: RE0                    symmetry: a               state:    7    |
     +-----------------------+-----------------------+-----------------------+
     | occ. orb.  index spin | vir. orb.  index spin |  coeff/|amp|     %    |
     +=======================+=======================+=======================+
     |   39 a       39       |   43 a       43       |  -0.61722      38.1   |
     |   41 a       41       |   46 a       46       |   0.45101      20.3   |
     |   42 a       42       |   55 a       55       |  -0.26224       6.9   |
     |   42 a       42       |   53 a       53       |  -0.25830       6.7   |
     |   42 a       42       |   52 a       52       |   0.23848       5.7   |
     |   42 a       42       |   46 a       46       |   0.19951       4.0   |
     |   42 a       42       |   62 a       62       |   0.11418       1.3   |
     |   39 a       39       |   55 a       55       |   0.10398       1.1   |
     |   42 a       42       |   60 a       60       |  -0.09543       0.9   |
     |   36 a       36       |   43 a       43       |   0.09511       0.9   |
     |   38 a       38       |   43 a       43       |   0.09506       0.9   |
     |   41 a       41       |   43 a       43       |  -0.09290       0.9   |
     |   39 a       39       |   44 a       44       |   0.08599       0.7   |
     |   39 a       39       |   60 a       60       |   0.07590       0.6   |
     |   39 a       39       |   53 a       53       |   0.07101       0.5   |
     |   38 a       38       |   46 a       46       |   0.07013       0.5   |
     |   42 a       42       |   70 a       70       |   0.06867       0.5   |
     |   39 a       39       |   62 a       62       |  -0.06744       0.5   |
     |   42 a       42       |   56 a       56       |   0.06532       0.4   |
     |   39 a       39       |   52 a       52       |  -0.06484       0.4   |
     +=======================+=======================+=======================+
     norm of printed elements:  0.91707


       Energy:     0.2221411 H      6.04477 eV    48754.344 cm-1

     +=======================================================================+
     | type: RE0                    symmetry: a               state:    8    |
     +-----------------------+-----------------------+-----------------------+
     | occ. orb.  index spin | vir. orb.  index spin |  coeff/|amp|     %    |
     +=======================+=======================+=======================+
     |   39 a       39       |   43 a       43       |   0.57185      32.7   |
     |   41 a       41       |   46 a       46       |   0.48061      23.1   |
     |   41 a       41       |   43 a       43       |   0.27523       7.6   |
     |   42 a       42       |   55 a       55       |  -0.24810       6.2   |
     |   42 a       42       |   53 a       53       |  -0.22952       5.3   |
     |   42 a       42       |   52 a       52       |   0.21899       4.8   |
     |   38 a       38       |   43 a       43       |  -0.18321       3.4   |
     |   36 a       36       |   46 a       46       |   0.12669       1.6   |
     |   42 a       42       |   43 a       43       |   0.12031       1.4   |
     |   42 a       42       |   62 a       62       |   0.10700       1.1   |
     |   39 a       39       |   55 a       55       |  -0.09197       0.8   |
     |   42 a       42       |   60 a       60       |  -0.08669       0.8   |
     |   39 a       39       |   44 a       44       |  -0.08005       0.6   |
     |   41 a       41       |   53 a       53       |   0.06594       0.4   |
     |   36 a       36       |   43 a       43       |   0.06334       0.4   |
     |   39 a       39       |   46 a       46       |   0.06241       0.4   |
     |   42 a       42       |   56 a       56       |   0.05954       0.4   |
     |   42 a       42       |   70 a       70       |   0.05935       0.4   |
     |   41 a       41       |   52 a       52       |  -0.05446       0.3   |
     |   39 a       39       |   62 a       62       |   0.05276       0.3   |
     +=======================+=======================+=======================+
     norm of printed elements:  0.91893


       Energy:     0.2280953 H      6.20679 eV    50061.131 cm-1

     +=======================================================================+
     | type: RE0                    symmetry: a               state:    9    |
     +-----------------------+-----------------------+-----------------------+
     | occ. orb.  index spin | vir. orb.  index spin |  coeff/|amp|     %    |
     +=======================+=======================+=======================+
     |   37 a       37       |   46 a       46       |   0.93346      87.1   |
     |   40 a       40       |   46 a       46       |  -0.23175       5.4   |
     |   35 a       35       |   46 a       46       |   0.10429       1.1   |
     |   37 a       37       |   43 a       43       |  -0.10029       1.0   |
     |   37 a       37       |   60 a       60       |  -0.09510       0.9   |
     +=======================+=======================+=======================+
     norm of printed elements:  0.95504


       Energy:     0.2315870 H      6.30180 eV    50827.466 cm-1

     +=======================================================================+
     | type: RE0                    symmetry: a               state:   10    |
     +-----------------------+-----------------------+-----------------------+
     | occ. orb.  index spin | vir. orb.  index spin |  coeff/|amp|     %    |
     +=======================+=======================+=======================+
     |   41 a       41       |   46 a       46       |   0.64422      41.5   |
     |   42 a       42       |   52 a       52       |  -0.33915      11.5   |
     |   42 a       42       |   53 a       53       |   0.33273      11.1   |
     |   42 a       42       |   55 a       55       |   0.33119      11.0   |
     |   42 a       42       |   62 a       62       |  -0.13271       1.8   |
     |   42 a       42       |   46 a       46       |   0.12773       1.6   |
     |   42 a       42       |   60 a       60       |   0.12575       1.6   |
     |   36 a       36       |   43 a       43       |  -0.12475       1.6   |
     |   38 a       38       |   46 a       46       |   0.10832       1.2   |
     |   42 a       42       |   47 a       47       |  -0.09987       1.0   |
     |   42 a       42       |   70 a       70       |  -0.08971       0.8   |
     |   41 a       41       |   55 a       55       |  -0.08517       0.7   |
     |   41 a       41       |   53 a       53       |  -0.08460       0.7   |
     |   41 a       41       |   60 a       60       |  -0.08422       0.7   |
     |   41 a       41       |   52 a       52       |   0.07874       0.6   |
     |   42 a       42       |   50 a       50       |   0.07367       0.5   |
     |   42 a       42       |   56 a       56       |  -0.07015       0.5   |
     |   42 a       42       |   45 a       45       |   0.06853       0.5   |
     |   42 a       42       |   65 a       65       |   0.06779       0.5   |
     |   42 a       42       |   43 a       43       |   0.06672       0.4   |
     +=======================+=======================+=======================+
     norm of printed elements:  0.89730


       Energy:     0.2350007 H      6.39470 eV    51576.703 cm-1

     +=======================================================================+
     | type: RE0                    symmetry: a               state:   11    |
     +-----------------------+-----------------------+-----------------------+
     | occ. orb.  index spin | vir. orb.  index spin |  coeff/|amp|     %    |
     +=======================+=======================+=======================+
     |   42 a       42       |   45 a       45       |  -0.60492      36.6   |
     |   40 a       40       |   46 a       46       |  -0.29096       8.5   |
     |   42 a       42       |   53 a       53       |   0.25559       6.5   |
     |   42 a       42       |   52 a       52       |   0.19233       3.7   |
     |   42 a       42       |   56 a       56       |  -0.18860       3.6   |
     |   41 a       41       |   44 a       44       |   0.18531       3.4   |
     |   42 a       42       |   50 a       50       |  -0.18228       3.3   |
     |   42 a       42       |   47 a       47       |   0.17812       3.2   |
     |   42 a       42       |   51 a       51       |   0.17571       3.1   |
     |   42 a       42       |   49 a       49       |  -0.15348       2.4   |
     |   42 a       42       |   57 a       57       |   0.15184       2.3   |
     |   42 a       42       |   69 a       69       |  -0.13087       1.7   |
     |   42 a       42       |   63 a       63       |   0.11521       1.3   |
     |   42 a       42       |   44 a       44       |   0.10896       1.2   |
     |   37 a       37       |   46 a       46       |  -0.10462       1.1   |
     |   35 a       35       |   46 a       46       |   0.10247       1.1   |
     |   36 a       36       |   45 a       45       |   0.09655       0.9   |
     |   42 a       42       |   54 a       54       |  -0.09486       0.9   |
     |   42 a       42       |   48 a       48       |  -0.08613       0.7   |
     |   41 a       41       |   57 a       57       |   0.08372       0.7   |
     +=======================+=======================+=======================+
     norm of printed elements:  0.86172


       Energy:     0.2369611 H      6.44804 eV    52006.960 cm-1

     +=======================================================================+
     | type: RE0                    symmetry: a               state:   12    |
     +-----------------------+-----------------------+-----------------------+
     | occ. orb.  index spin | vir. orb.  index spin |  coeff/|amp|     %    |
     +=======================+=======================+=======================+
     |   42 a       42       |   47 a       47       |   0.78460      61.6   |
     |   42 a       42       |   50 a       50       |  -0.31341       9.8   |
     |   40 a       40       |   46 a       46       |   0.19881       4.0   |
     |   42 a       42       |   49 a       49       |   0.17550       3.1   |
     |   41 a       41       |   47 a       47       |  -0.14077       2.0   |
     |   42 a       42       |   44 a       44       |   0.12144       1.5   |
     |   42 a       42       |   48 a       48       |  -0.11606       1.3   |
     |   42 a       42       |   51 a       51       |  -0.11195       1.3   |
     |   42 a       42       |   71 a       71       |  -0.10811       1.2   |
     |   36 a       36       |   47 a       47       |  -0.10444       1.1   |
     |   42 a       42       |   52 a       52       |  -0.10327       1.1   |
     |   42 a       42       |   75 a       75       |   0.10254       1.1   |
     |   35 a       35       |   46 a       46       |  -0.08379       0.7   |
     |   36 a       36       |   44 a       44       |   0.07340       0.5   |
     |   42 a       42       |   45 a       45       |   0.07157       0.5   |
     |   42 a       42       |   72 a       72       |   0.07119       0.5   |
     |   41 a       41       |   50 a       50       |   0.06359       0.4   |
     |   42 a       42       |   80 a       80       |  -0.05999       0.4   |
     |   41 a       41       |   46 a       46       |   0.05789       0.3   |
     |   41 a       41       |   53 a       53       |  -0.05622       0.3   |
     +=======================+=======================+=======================+
     norm of printed elements:  0.92524


       Energy:     0.2380207 H      6.47687 eV    52239.497 cm-1

     +=======================================================================+
     | type: RE0                    symmetry: a               state:   13    |
     +-----------------------+-----------------------+-----------------------+
     | occ. orb.  index spin | vir. orb.  index spin |  coeff/|amp|     %    |
     +=======================+=======================+=======================+
     |   40 a       40       |   46 a       46       |  -0.61880      38.3   |
     |   42 a       42       |   45 a       45       |   0.49241      24.2   |
     |   35 a       35       |   46 a       46       |   0.32631      10.6   |
     |   37 a       37       |   46 a       46       |  -0.19127       3.7   |
     |   42 a       42       |   47 a       47       |   0.18264       3.3   |
     |   40 a       40       |   43 a       43       |   0.13464       1.8   |
     |   42 a       42       |   49 a       49       |   0.10875       1.2   |
     |   42 a       42       |   48 a       48       |   0.10606       1.1   |
     |   40 a       40       |   55 a       55       |   0.09998       1.0   |
     |   41 a       41       |   44 a       44       |  -0.09033       0.8   |
     |   40 a       40       |   73 a       73       |   0.08918       0.8   |
     |   41 a       41       |   45 a       45       |  -0.08807       0.8   |
     |   42 a       42       |   57 a       57       |   0.08475       0.7   |
     |   40 a       40       |   58 a       58       |  -0.08138       0.7   |
     |   40 a       40       |   53 a       53       |   0.07071       0.5   |
     |   40 a       40       |   81 a       81       |  -0.06979       0.5   |
     |   36 a       36       |   45 a       45       |  -0.06718       0.5   |
     |   40 a       40       |   52 a       52       |  -0.06682       0.4   |
     |   42 a       42       |   63 a       63       |   0.06446       0.4   |
     |   42 a       42       |   76 a       76       |  -0.06355       0.4   |
     +=======================+=======================+=======================+
     norm of printed elements:  0.91771


       Energy:     0.2420068 H      6.58534 eV    53114.363 cm-1

     +=======================================================================+
     | type: RE0                    symmetry: a               state:   14    |
     +-----------------------+-----------------------+-----------------------+
     | occ. orb.  index spin | vir. orb.  index spin |  coeff/|amp|     %    |
     +=======================+=======================+=======================+
     |   35 a       35       |   46 a       46       |  -0.36716      13.5   |
     |   42 a       42       |   45 a       45       |   0.33727      11.4   |
     |   42 a       42       |   52 a       52       |   0.32828      10.8   |
     |   42 a       42       |   57 a       57       |   0.28061       7.9   |
     |   42 a       42       |   53 a       53       |   0.27673       7.7   |
     |   40 a       40       |   46 a       46       |   0.26264       6.9   |
     |   42 a       42       |   56 a       56       |  -0.24295       5.9   |
     |   42 a       42       |   63 a       63       |   0.21883       4.8   |
     |   42 a       42       |   48 a       48       |   0.21487       4.6   |
     |   42 a       42       |   72 a       72       |  -0.13883       1.9   |
     |   42 a       42       |   51 a       51       |   0.13168       1.7   |
     |   42 a       42       |   75 a       75       |  -0.11641       1.4   |
     |   42 a       42       |   61 a       61       |  -0.11096       1.2   |
     |   41 a       41       |   57 a       57       |   0.10943       1.2   |
     |   41 a       41       |   52 a       52       |   0.10240       1.0   |
     |   42 a       42       |   71 a       71       |  -0.09724       0.9   |
     |   42 a       42       |   69 a       69       |  -0.09603       0.9   |
     |   42 a       42       |   54 a       54       |  -0.09228       0.9   |
     |   41 a       41       |   53 a       53       |   0.08251       0.7   |
     |   38 a       38       |   57 a       57       |   0.08191       0.7   |
     +=======================+=======================+=======================+
     norm of printed elements:  0.85935


       Energy:     0.2481769 H      6.75324 eV    54468.523 cm-1

     +=======================================================================+
     | type: RE0                    symmetry: a               state:   15    |
     +-----------------------+-----------------------+-----------------------+
     | occ. orb.  index spin | vir. orb.  index spin |  coeff/|amp|     %    |
     +=======================+=======================+=======================+
     |   35 a       35       |   46 a       46       |   0.77936      60.7   |
     |   40 a       40       |   46 a       46       |   0.45051      20.3   |
     |   40 a       40       |   43 a       43       |  -0.16361       2.7   |
     |   40 a       40       |   55 a       55       |  -0.10838       1.2   |
     |   42 a       42       |   52 a       52       |   0.09990       1.0   |
     |   40 a       40       |   53 a       53       |  -0.08642       0.7   |
     |   42 a       42       |   53 a       53       |   0.08543       0.7   |
     |   35 a       35       |   43 a       43       |  -0.08500       0.7   |
     |   40 a       40       |   73 a       73       |  -0.08435       0.7   |
     |   40 a       40       |   52 a       52       |   0.08044       0.6   |
     |   36 a       36       |   46 a       46       |   0.07707       0.6   |
     |   40 a       40       |   58 a       58       |   0.07488       0.6   |
     |   42 a       42       |   48 a       48       |   0.07378       0.5   |
     |   42 a       42       |   56 a       56       |  -0.07274       0.5   |
     |   42 a       42       |   57 a       57       |   0.07269       0.5   |
     |   35 a       35       |   60 a       60       |  -0.07191       0.5   |
     |   35 a       35       |   65 a       65       |   0.06476       0.4   |
     |   40 a       40       |   81 a       81       |   0.06338       0.4   |
     |   42 a       42       |   63 a       63       |   0.05792       0.3   |
     |   42 a       42       |   51 a       51       |   0.05668       0.3   |
     +=======================+=======================+=======================+
     norm of printed elements:  0.94194



     Info: copy ADC(2) right eigenvectors into left eigenvector files.


                    ========   CC DENSITY MODULE   ========

                      current wave-function model: ADC(2)  

  calculating overlap between   15 left and right vector(s)
    density nr.      cpu/min        wall/min    L     R
   ------------------------------------------------------
         1             1.44            1.50    LE0    RE0 
         2             1.44            1.50    LE0    RE0 
         3             1.44            1.50    LE0    RE0 
         4             1.45            1.51    LE0    RE0 
         5             1.45            1.50    LE0    RE0 
         6             1.44            1.51    LE0    RE0 
         7             1.44            1.54    LE0    RE0 
         8             1.44            1.53    LE0    RE0 
         9             1.44            1.51    LE0    RE0 
        10             1.44            1.50    LE0    RE0 
        11             1.44            1.50    LE0    RE0 
        12             1.44            1.51    LE0    RE0 
        13             1.44            1.50    LE0    RE0 
        14             1.45            1.50    LE0    RE0 
        15             1.44            1.50    LE0    RE0 
   ------------------------------------------------------
     time in cc_1den       cpu: 21 min 40 s  wall: 22 min 37 s  ratio:  1.0



     +==========================================================+
     |   contributions of excitation levels to excited states   |
     |     wavefunctions as computed from the <L|R> overlap     |
     +----------------------------------------------------------+
     | sym | multi | state |    E / eV  | % singles | % doubles |
     +==========================================================+
     | a   |   1   |   1   |    3.77653 |   89.70   |   10.30   |
     | a   |   1   |   2   |    4.29061 |   88.43   |   11.57   |
     | a   |   1   |   3   |    4.34318 |   89.14   |   10.86   |
     | a   |   1   |   4   |    4.44812 |   90.10   |    9.90   |
     | a   |   1   |   5   |    5.42160 |   88.37   |   11.63   |
     | a   |   1   |   6   |    5.62069 |   91.67   |    8.33   |
     | a   |   1   |   7   |    5.90318 |   89.89   |   10.11   |
     | a   |   1   |   8   |    6.04477 |   89.23   |   10.77   |
     | a   |   1   |   9   |    6.20679 |   83.60   |   16.40   |
     | a   |   1   |  10   |    6.30180 |   89.54   |   10.46   |
     | a   |   1   |  11   |    6.39470 |   91.63   |    8.37   |
     | a   |   1   |  12   |    6.44804 |   91.34   |    8.66   |
     | a   |   1   |  13   |    6.47687 |   90.10   |    9.90   |
     | a   |   1   |  14   |    6.58534 |   90.64   |    9.36   |
     | a   |   1   |  15   |    6.75324 |   86.78   |   13.22   |
     +==========================================================+



      The semi-canonical algorithm will be used for densities


                    ========   CC DENSITY MODULE   ========

                      current wave-function model: ADC(2)  

  calculating    15 xi densities

   a semicanonical algorithm will be used

    density nr.      cpu/min        wall/min    L     R
   ------------------------------------------------------
         1             2.48            2.70    LE0    R0  
         2             2.52            2.73    LE0    R0  
         3             2.47            2.68    LE0    R0  
         4             2.53            2.75    LE0    R0  
         5             2.50            2.70    LE0    R0  
         6             2.50            2.71    LE0    R0  
         7             2.50            2.74    LE0    R0  
         8             2.47            2.69    LE0    R0  
         9             2.52            2.76    LE0    R0  
        10             2.48            2.74    LE0    R0  
        11             2.50            2.77    LE0    R0  
        12             2.49            2.72    LE0    R0  
        13             2.47            2.69    LE0    R0  
        14             2.51            2.76    LE0    R0  
        15             2.49            2.70    LE0    R0  
   ------------------------------------------------------
     time in cc_1den       cpu: 37 min 26 s  wall: 40 min 50 s  ratio:  0.9


 **************************************************************
 *                                                            *
 *<<<<<<<<<<<<  ONE-PHOTON ABSORPTION STRENGTHS  >>>>>>>>>>>>>*
 *                                                            *
 **************************************************************



  +=========================================================================+
  |  Transition                                             model: ADC(2)   |
  |    number, symmetry, multiplicity:    1 a    1                          |
  |    frequency :   0.1387851102 a.u.     3.77653 e.V.     30459.8 rcm     |
  +=========================================================================+

     +-----------+-----------------+-----------------+---------------------+
     | operator  |   left moment   |  right moment   | transition strength |
     +-----------+-----------------+-----------------+---------------------+
     | xdiplen   |     -0.00436037 |     -0.00436037 |       0.00001901    |
     | ydiplen   |     -0.00134508 |     -0.00134508 |       0.00000181    |
     | zdiplen   |      0.00053556 |      0.00053556 |       0.00000029    |
     | xdipvel   |     -0.00061954 |      0.00061954 |       0.00000038    |
     | ydipvel   |     -0.00020001 |      0.00020001 |       0.00000004    |
     | zdipvel   |      0.00005142 |     -0.00005142 |       0.00000000    |
     | xangmom   |      0.53012222 |     -0.53012222 |       0.28102957    |
     | yangmom   |      0.18707277 |     -0.18707277 |       0.03499622    |
     | zangmom   |      0.00025470 |     -0.00025470 |       0.00000006    |
     +-----------+-----------------+-----------------+---------------------+
 
       oscillator strength (length gauge)   :      0.00000195
       oscillator strength (velocity gauge) :      0.00000205
       oscillator strength (mixed gauge)    :      0.00000200
 
       rotator strength (length gauge)      :     -0.00128151 a.u.
       Rotator strength (length gauge)      :     -0.60415913 10^(-40)*erg*cm^3
       rotator strength (velocity gauge)    :     -0.00131799 a.u.
       Rotator strength (velocity gauge)    :     -0.62135563 10^(-40)*erg*cm^3
 


  +=========================================================================+
  |  Transition                                             model: ADC(2)   |
  |    number, symmetry, multiplicity:    2 a    1                          |
  |    frequency :   0.1576771739 a.u.     4.29061 e.V.     34606.1 rcm     |
  +=========================================================================+

     +-----------+-----------------+-----------------+---------------------+
     | operator  |   left moment   |  right moment   | transition strength |
     +-----------+-----------------+-----------------+---------------------+
     | xdiplen   |      1.56830925 |      1.56830925 |       2.45959390    |
     | ydiplen   |      0.10060090 |      0.10060090 |       0.01012054    |
     | zdiplen   |     -0.00675288 |     -0.00675288 |       0.00004560    |
     | xdipvel   |      0.24511024 |     -0.24511024 |       0.06007903    |
     | ydipvel   |      0.02295157 |     -0.02295157 |       0.00052677    |
     | zdipvel   |     -0.00158668 |      0.00158668 |       0.00000252    |
     | xangmom   |      0.00334196 |     -0.00334196 |       0.00001117    |
     | yangmom   |     -0.00052025 |      0.00052025 |       0.00000027    |
     | zangmom   |      0.33516330 |     -0.33516330 |       0.11233443    |
     +-----------+-----------------+-----------------+---------------------+
 
       oscillator strength (length gauge)   :      0.25961652
       oscillator strength (velocity gauge) :      0.25625491
       oscillator strength (mixed gauge)    :      0.25781889
 
       rotator strength (length gauge)      :      0.00146279 a.u.
       Rotator strength (length gauge)      :      0.68962247 10^(-40)*erg*cm^3
       rotator strength (velocity gauge)    :      0.00087335 a.u.
       Rotator strength (velocity gauge)    :      0.41173353 10^(-40)*erg*cm^3
 


  +=========================================================================+
  |  Transition                                             model: ADC(2)   |
  |    number, symmetry, multiplicity:    3 a    1                          |
  |    frequency :   0.1596089785 a.u.     4.34318 e.V.     35030.1 rcm     |
  +=========================================================================+

     +-----------+-----------------+-----------------+---------------------+
     | operator  |   left moment   |  right moment   | transition strength |
     +-----------+-----------------+-----------------+---------------------+
     | xdiplen   |     -0.86739015 |     -0.86739015 |       0.75236568    |
     | ydiplen   |     -0.99731772 |     -0.99731772 |       0.99464264    |
     | zdiplen   |      0.00957683 |      0.00957683 |       0.00009172    |
     | xdipvel   |     -0.14586300 |      0.14586300 |       0.02127601    |
     | ydipvel   |     -0.15106271 |      0.15106271 |       0.02281994    |
     | zdipvel   |      0.00234100 |     -0.00234100 |       0.00000548    |
     | xangmom   |      0.00761882 |     -0.00761882 |       0.00005805    |
     | yangmom   |     -0.00821390 |      0.00821390 |       0.00006747    |
     | zangmom   |      0.83696425 |     -0.83696425 |       0.70050916    |
     +-----------+-----------------+-----------------+---------------------+
 
       oscillator strength (length gauge)   :      0.18590190
       oscillator strength (velocity gauge) :      0.18420617
       oscillator strength (mixed gauge)    :      0.18480004
 
       rotator strength (length gauge)      :      0.00479942 a.u.
       Rotator strength (length gauge)      :      2.26265787 10^(-40)*erg*cm^3
       rotator strength (velocity gauge)    :      0.00654364 a.u.
       Rotator strength (velocity gauge)    :      3.08495759 10^(-40)*erg*cm^3
 


  +=========================================================================+
  |  Transition                                             model: ADC(2)   |
  |    number, symmetry, multiplicity:    4 a    1                          |
  |    frequency :   0.1634654743 a.u.     4.44812 e.V.     35876.5 rcm     |
  +=========================================================================+

     +-----------+-----------------+-----------------+---------------------+
     | operator  |   left moment   |  right moment   | transition strength |
     +-----------+-----------------+-----------------+---------------------+
     | xdiplen   |     -0.00394161 |     -0.00394161 |       0.00001554    |
     | ydiplen   |     -0.00068372 |     -0.00068372 |       0.00000047    |
     | zdiplen   |     -0.06493261 |     -0.06493261 |       0.00421624    |
     | xdipvel   |     -0.00063903 |      0.00063903 |       0.00000041    |
     | ydipvel   |     -0.00009317 |      0.00009317 |       0.00000001    |
     | zdipvel   |     -0.01489330 |      0.01489330 |       0.00022181    |
     | xangmom   |      0.36100355 |     -0.36100355 |       0.13032356    |
     | yangmom   |     -1.07971445 |      1.07971445 |       1.16578330    |
     | zangmom   |     -0.00443013 |      0.00443013 |       0.00001963    |
     +-----------+-----------------+-----------------+---------------------+
 
       oscillator strength (length gauge)   :      0.00046122
       oscillator strength (velocity gauge) :      0.00090632
       oscillator strength (mixed gauge)    :      0.00064643
 
       rotator strength (length gauge)      :     -0.00019853 a.u.
       Rotator strength (length gauge)      :     -0.09359537 10^(-40)*erg*cm^3
       rotator strength (velocity gauge)    :     -0.00019611 a.u.
       Rotator strength (velocity gauge)    :     -0.09245492 10^(-40)*erg*cm^3
 


  +=========================================================================+
  |  Transition                                             model: ADC(2)   |
  |    number, symmetry, multiplicity:    5 a    1                          |
  |    frequency :   0.1992399899 a.u.     5.42160 e.V.     43728.1 rcm     |
  +=========================================================================+

     +-----------+-----------------+-----------------+---------------------+
     | operator  |   left moment   |  right moment   | transition strength |
     +-----------+-----------------+-----------------+---------------------+
     | xdiplen   |     -0.83278103 |     -0.83278103 |       0.69352425    |
     | ydiplen   |      0.62942589 |      0.62942589 |       0.39617695    |
     | zdiplen   |     -0.00035721 |     -0.00035721 |       0.00000013    |
     | xdipvel   |     -0.14044762 |      0.14044762 |       0.01972553    |
     | ydipvel   |      0.09296316 |     -0.09296316 |       0.00864215    |
     | zdipvel   |     -0.00017749 |      0.00017749 |       0.00000003    |
     | xangmom   |     -0.00366964 |      0.00366964 |       0.00001347    |
     | yangmom   |      0.00155363 |     -0.00155363 |       0.00000241    |
     | zangmom   |      0.46660362 |     -0.46660362 |       0.21771894    |
     +-----------+-----------------+-----------------+---------------------+
 
       oscillator strength (length gauge)   :      0.14474139
       oscillator strength (velocity gauge) :      0.09491975
       oscillator strength (mixed gauge)    :      0.11698373
 
       rotator strength (length gauge)      :      0.00193361 a.u.
       Rotator strength (length gauge)      :      0.91158856 10^(-40)*erg*cm^3
       rotator strength (velocity gauge)    :      0.00144802 a.u.
       Rotator strength (velocity gauge)    :      0.68265827 10^(-40)*erg*cm^3
 


  +=========================================================================+
  |  Transition                                             model: ADC(2)   |
  |    number, symmetry, multiplicity:    6 a    1                          |
  |    frequency :   0.2065565139 a.u.     5.62069 e.V.     45333.9 rcm     |
  +=========================================================================+

     +-----------+-----------------+-----------------+---------------------+
     | operator  |   left moment   |  right moment   | transition strength |
     +-----------+-----------------+-----------------+---------------------+
     | xdiplen   |     -0.02133545 |     -0.02133545 |       0.00045520    |
     | ydiplen   |      0.01497716 |      0.01497716 |       0.00022432    |
     | zdiplen   |      0.19230853 |      0.19230853 |       0.03698257    |
     | xdipvel   |     -0.00398361 |      0.00398361 |       0.00001587    |
     | ydipvel   |      0.00291939 |     -0.00291939 |       0.00000852    |
     | zdipvel   |      0.05388961 |     -0.05388961 |       0.00290409    |
     | xangmom   |      0.00256405 |     -0.00256405 |       0.00000657    |
     | yangmom   |     -0.53441438 |      0.53441438 |       0.28559873    |
     | zangmom   |      0.00194358 |     -0.00194358 |       0.00000378    |
     +-----------+-----------------+-----------------+---------------------+
 
       oscillator strength (length gauge)   :      0.00518623
       oscillator strength (velocity gauge) :      0.00945175
       oscillator strength (mixed gauge)    :      0.00699477
 
       rotator strength (length gauge)      :     -0.00384247 a.u.
       Rotator strength (length gauge)      :     -1.81150928 10^(-40)*erg*cm^3
       rotator strength (velocity gauge)    :     -0.00354779 a.u.
       Rotator strength (velocity gauge)    :     -1.67258120 10^(-40)*erg*cm^3
 


  +=========================================================================+
  |  Transition                                             model: ADC(2)   |
  |    number, symmetry, multiplicity:    7 a    1                          |
  |    frequency :   0.2169379209 a.u.     5.90318 e.V.     47612.4 rcm     |
  +=========================================================================+

     +-----------+-----------------+-----------------+---------------------+
     | operator  |   left moment   |  right moment   | transition strength |
     +-----------+-----------------+-----------------+---------------------+
     | xdiplen   |      1.18935886 |      1.18935886 |       1.41457450    |
     | ydiplen   |     -0.97530675 |     -0.97530675 |       0.95122325    |
     | zdiplen   |      0.01446656 |      0.01446656 |       0.00020928    |
     | xdipvel   |      0.22903637 |     -0.22903637 |       0.05245766    |
     | ydipvel   |     -0.21704436 |      0.21704436 |       0.04710826    |
     | zdipvel   |      0.00388035 |     -0.00388035 |       0.00001506    |
     | xangmom   |     -0.00563741 |      0.00563741 |       0.00003178    |
     | yangmom   |     -0.03362752 |      0.03362752 |       0.00113081    |
     | zangmom   |      0.86659917 |     -0.86659917 |       0.75099413    |
     +-----------+-----------------+-----------------+---------------------+
 
       oscillator strength (length gauge)   :      0.34218443
       oscillator strength (velocity gauge) :      0.30601987
       oscillator strength (mixed gauge)    :      0.32276494
 
       rotator strength (length gauge)      :      0.01931448 a.u.
       Rotator strength (length gauge)      :      9.10568617 10^(-40)*erg*cm^3
       rotator strength (velocity gauge)    :      0.02159650 a.u.
       Rotator strength (velocity gauge)    :     10.18153176 10^(-40)*erg*cm^3
 


  +=========================================================================+
  |  Transition                                             model: ADC(2)   |
  |    number, symmetry, multiplicity:    8 a    1                          |
  |    frequency :   0.2221411369 a.u.     6.04477 e.V.     48754.3 rcm     |
  +=========================================================================+

     +-----------+-----------------+-----------------+---------------------+
     | operator  |   left moment   |  right moment   | transition strength |
     +-----------+-----------------+-----------------+---------------------+
     | xdiplen   |      0.29222238 |      0.29222238 |       0.08539392    |
     | ydiplen   |      0.80647118 |      0.80647118 |       0.65039577    |
     | zdiplen   |      0.01926656 |      0.01926656 |       0.00037120    |
     | xdipvel   |      0.04286941 |     -0.04286941 |       0.00183779    |
     | ydipvel   |      0.17252091 |     -0.17252091 |       0.02976346    |
     | zdipvel   |      0.00488029 |     -0.00488029 |       0.00002382    |
     | xangmom   |     -0.00932457 |      0.00932457 |       0.00008695    |
     | yangmom   |     -0.02082113 |      0.02082113 |       0.00043352    |
     | zangmom   |     -1.29657620 |      1.29657620 |       1.68110983    |
     +-----------+-----------------+-----------------+---------------------+
 
       oscillator strength (length gauge)   :      0.10902108
       oscillator strength (velocity gauge) :      0.09490983
       oscillator strength (mixed gauge)    :      0.10116971
 
       rotator strength (length gauge)      :     -0.02224853 a.u.
       Rotator strength (length gauge)      :    -10.48892514 10^(-40)*erg*cm^3
       rotator strength (velocity gauge)    :     -0.02322732 a.u.
       Rotator strength (velocity gauge)    :    -10.95036971 10^(-40)*erg*cm^3
 


  +=========================================================================+
  |  Transition                                             model: ADC(2)   |
  |    number, symmetry, multiplicity:    9 a    1                          |
  |    frequency :   0.2280952944 a.u.     6.20679 e.V.     50061.1 rcm     |
  +=========================================================================+

     +-----------+-----------------+-----------------+---------------------+
     | operator  |   left moment   |  right moment   | transition strength |
     +-----------+-----------------+-----------------+---------------------+
     | xdiplen   |     -0.00066041 |     -0.00066041 |       0.00000044    |
     | ydiplen   |     -0.00227237 |     -0.00227237 |       0.00000516    |
     | zdiplen   |     -0.01716364 |     -0.01716364 |       0.00029459    |
     | xdipvel   |      0.00009966 |     -0.00009966 |       0.00000001    |
     | ydipvel   |     -0.00032460 |      0.00032460 |       0.00000011    |
     | zdipvel   |     -0.00701189 |      0.00701189 |       0.00004917    |
     | xangmom   |     -0.05066878 |      0.05066878 |       0.00256733    |
     | yangmom   |     -0.02444555 |      0.02444555 |       0.00059758    |
     | zangmom   |      0.00629218 |     -0.00629218 |       0.00003959    |
     +-----------+-----------------+-----------------+---------------------+
 
       oscillator strength (length gauge)   :      0.00004565
       oscillator strength (velocity gauge) :      0.00014404
       oscillator strength (mixed gauge)    :      0.00008068
 
       rotator strength (length gauge)      :     -0.00000949 a.u.
       Rotator strength (length gauge)      :     -0.00447522 10^(-40)*erg*cm^3
       rotator strength (velocity gauge)    :     -0.00009039 a.u.
       Rotator strength (velocity gauge)    :     -0.04261312 10^(-40)*erg*cm^3
 


  +=========================================================================+
  |  Transition                                             model: ADC(2)   |
  |    number, symmetry, multiplicity:   10 a    1                          |
  |    frequency :   0.2315869767 a.u.     6.30180 e.V.     50827.5 rcm     |
  +=========================================================================+

     +-----------+-----------------+-----------------+---------------------+
     | operator  |   left moment   |  right moment   | transition strength |
     +-----------+-----------------+-----------------+---------------------+
     | xdiplen   |      1.51692319 |      1.51692319 |       2.30105597    |
     | ydiplen   |      0.08987584 |      0.08987584 |       0.00807767    |
     | zdiplen   |     -0.02363007 |     -0.02363007 |       0.00055838    |
     | xdipvel   |      0.32746623 |     -0.32746623 |       0.10723413    |
     | ydipvel   |      0.02801305 |     -0.02801305 |       0.00078473    |
     | zdipvel   |     -0.00663502 |      0.00663502 |       0.00004402    |
     | xangmom   |      0.03068461 |     -0.03068461 |       0.00094155    |
     | yangmom   |      0.01493758 |     -0.01493758 |       0.00022313    |
     | zangmom   |     -0.45093383 |      0.45093383 |       0.20334132    |
     +-----------+-----------------+-----------------+---------------------+
 
       oscillator strength (length gauge)   :      0.35659639
       oscillator strength (velocity gauge) :      0.31107935
       oscillator strength (mixed gauge)    :      0.33294374
 
       rotator strength (length gauge)      :      0.02927216 a.u.
       Rotator strength (length gauge)      :     13.80017235 10^(-40)*erg*cm^3
       rotator strength (velocity gauge)    :      0.02905729 a.u.
       Rotator strength (velocity gauge)    :     13.69887009 10^(-40)*erg*cm^3
 


  +=========================================================================+
  |  Transition                                             model: ADC(2)   |
  |    number, symmetry, multiplicity:   11 a    1                          |
  |    frequency :   0.2350007489 a.u.     6.39470 e.V.     51576.7 rcm     |
  +=========================================================================+

     +-----------+-----------------+-----------------+---------------------+
     | operator  |   left moment   |  right moment   | transition strength |
     +-----------+-----------------+-----------------+---------------------+
     | xdiplen   |      0.14989222 |      0.14989222 |       0.02246768    |
     | ydiplen   |      0.00078354 |      0.00078354 |       0.00000061    |
     | zdiplen   |      0.17419903 |      0.17419903 |       0.03034530    |
     | xdipvel   |      0.03390904 |     -0.03390904 |       0.00114982    |
     | ydipvel   |      0.00194100 |     -0.00194100 |       0.00000377    |
     | zdipvel   |      0.04004455 |     -0.04004455 |       0.00160357    |
     | xangmom   |     -0.25297877 |      0.25297877 |       0.06399826    |
     | yangmom   |      0.00620632 |     -0.00620632 |       0.00003852    |
     | zangmom   |     -0.04172303 |      0.04172303 |       0.00174081    |
     +-----------+-----------------+-----------------+---------------------+
 
       oscillator strength (length gauge)   :      0.00827416
       oscillator strength (velocity gauge) :      0.00782170
       oscillator strength (mixed gauge)    :      0.00803996
 
       rotator strength (length gauge)      :     -0.02259140 a.u.
       Rotator strength (length gauge)      :    -10.65056939 10^(-40)*erg*cm^3
       rotator strength (velocity gauge)    :     -0.02178078 a.u.
       Rotator strength (velocity gauge)    :    -10.26841018 10^(-40)*erg*cm^3
 


  +=========================================================================+
  |  Transition                                             model: ADC(2)   |
  |    number, symmetry, multiplicity:   12 a    1                          |
  |    frequency :   0.2369611469 a.u.     6.44804 e.V.     52007.0 rcm     |
  +=========================================================================+

     +-----------+-----------------+-----------------+---------------------+
     | operator  |   left moment   |  right moment   | transition strength |
     +-----------+-----------------+-----------------+---------------------+
     | xdiplen   |      0.14889643 |      0.14889643 |       0.02217015    |
     | ydiplen   |      0.00864464 |      0.00864464 |       0.00007473    |
     | zdiplen   |     -0.13859206 |     -0.13859206 |       0.01920776    |
     | xdipvel   |      0.03436455 |     -0.03436455 |       0.00118092    |
     | ydipvel   |      0.00352416 |     -0.00352416 |       0.00001242    |
     | zdipvel   |     -0.03461714 |      0.03461714 |       0.00119835    |
     | xangmom   |     -0.14085491 |      0.14085491 |       0.01984011    |
     | yangmom   |      0.22848263 |     -0.22848263 |       0.05220431    |
     | zangmom   |     -0.04913388 |      0.04913388 |       0.00241414    |
     +-----------+-----------------+-----------------+---------------------+
 
       oscillator strength (length gauge)   :      0.00654844
       oscillator strength (velocity gauge) :      0.00672878
       oscillator strength (mixed gauge)    :      0.00662992
 
       rotator strength (length gauge)      :     -0.00609404 a.u.
       Rotator strength (length gauge)      :     -2.87299548 10^(-40)*erg*cm^3
       rotator strength (velocity gauge)    :     -0.00492556 a.u.
       Rotator strength (velocity gauge)    :     -2.32212210 10^(-40)*erg*cm^3
 


  +=========================================================================+
  |  Transition                                             model: ADC(2)   |
  |    number, symmetry, multiplicity:   13 a    1                          |
  |    frequency :   0.2380206610 a.u.     6.47687 e.V.     52239.5 rcm     |
  +=========================================================================+

     +-----------+-----------------+-----------------+---------------------+
     | operator  |   left moment   |  right moment   | transition strength |
     +-----------+-----------------+-----------------+---------------------+
     | xdiplen   |     -0.02903903 |     -0.02903903 |       0.00084327    |
     | ydiplen   |      0.00382813 |      0.00382813 |       0.00001465    |
     | zdiplen   |     -0.15444939 |     -0.15444939 |       0.02385461    |
     | xdipvel   |     -0.00592838 |      0.00592838 |       0.00003515    |
     | ydipvel   |      0.00063504 |     -0.00063504 |       0.00000040    |
     | zdipvel   |     -0.03922058 |      0.03922058 |       0.00153825    |
     | xangmom   |     -0.20050875 |      0.20050875 |       0.04020376    |
     | yangmom   |      0.43789926 |     -0.43789926 |       0.19175576    |
     | zangmom   |      0.01599334 |     -0.01599334 |       0.00025579    |
     +-----------+-----------------+-----------------+---------------------+
 
       oscillator strength (length gauge)   :      0.00392140
       oscillator strength (velocity gauge) :      0.00440803
       oscillator strength (mixed gauge)    :      0.00415479
 
       rotator strength (length gauge)      :      0.00251438 a.u.
       Rotator strength (length gauge)      :      1.18538698 10^(-40)*erg*cm^3
       rotator strength (velocity gauge)    :      0.00176352 a.u.
       Rotator strength (velocity gauge)    :      0.83140067 10^(-40)*erg*cm^3
 


  +=========================================================================+
  |  Transition                                             model: ADC(2)   |
  |    number, symmetry, multiplicity:   14 a    1                          |
  |    frequency :   0.2420068440 a.u.     6.58534 e.V.     53114.4 rcm     |
  +=========================================================================+

     +-----------+-----------------+-----------------+---------------------+
     | operator  |   left moment   |  right moment   | transition strength |
     +-----------+-----------------+-----------------+---------------------+
     | xdiplen   |      0.00166628 |      0.00166628 |       0.00000278    |
     | ydiplen   |      0.00051732 |      0.00051732 |       0.00000027    |
     | zdiplen   |     -0.10500871 |     -0.10500871 |       0.01102683    |
     | xdipvel   |      0.00071472 |     -0.00071472 |       0.00000051    |
     | ydipvel   |      0.00006801 |     -0.00006801 |       0.00000000    |
     | zdipvel   |     -0.02993508 |      0.02993508 |       0.00089611    |
     | xangmom   |     -0.15347542 |      0.15347542 |       0.02355470    |
     | yangmom   |      0.26367505 |     -0.26367505 |       0.06952453    |
     | zangmom   |     -0.00096767 |      0.00096767 |       0.00000094    |
     +-----------+-----------------+-----------------+---------------------+
 
       oscillator strength (length gauge)   :      0.00177954
       oscillator strength (velocity gauge) :      0.00246997
       oscillator strength (mixed gauge)    :      0.00209645
 
       rotator strength (length gauge)      :     -0.00000886 a.u.
       Rotator strength (length gauge)      :     -0.00417552 10^(-40)*erg*cm^3
       rotator strength (velocity gauge)    :     -0.00012973 a.u.
       Rotator strength (velocity gauge)    :     -0.06116157 10^(-40)*erg*cm^3
 


  +=========================================================================+
  |  Transition                                             model: ADC(2)   |
  |    number, symmetry, multiplicity:   15 a    1                          |
  |    frequency :   0.2481768527 a.u.     6.75324 e.V.     54468.5 rcm     |
  +=========================================================================+

     +-----------+-----------------+-----------------+---------------------+
     | operator  |   left moment   |  right moment   | transition strength |
     +-----------+-----------------+-----------------+---------------------+
     | xdiplen   |      0.00852085 |      0.00852085 |       0.00007260    |
     | ydiplen   |     -0.00141215 |     -0.00141215 |       0.00000199    |
     | zdiplen   |     -0.00817271 |     -0.00817271 |       0.00006679    |
     | xdipvel   |      0.00178722 |     -0.00178722 |       0.00000319    |
     | ydipvel   |     -0.00032512 |      0.00032512 |       0.00000011    |
     | zdipvel   |     -0.00373840 |      0.00373840 |       0.00001398    |
     | xangmom   |      0.20050624 |     -0.20050624 |       0.04020275    |
     | yangmom   |     -0.05577786 |      0.05577786 |       0.00311117    |
     | zangmom   |     -0.01242162 |      0.01242162 |       0.00015430    |
     +-----------+-----------------+-----------------+---------------------+
 
       oscillator strength (length gauge)   :      0.00002339
       oscillator strength (velocity gauge) :      0.00004641
       oscillator strength (mixed gauge)    :      0.00003083
 
       rotator strength (length gauge)      :      0.00094438 a.u.
       Rotator strength (length gauge)      :      0.44522392 10^(-40)*erg*cm^3
       rotator strength (velocity gauge)    :      0.00085205 a.u.
       Rotator strength (velocity gauge)    :      0.40169519 10^(-40)*erg*cm^3
 
 Exporting transition densities


    ------------------------------------------------------------------------
         total  cpu-time :  8 hours 49 minutes and 28 seconds
         total wall-time : 11 hours  7 minutes and  2 seconds
    ------------------------------------------------------------------------


   ****  ricc2 : all done  ****


    2023-01-23 20:33:00.331 

