 operating system is UNIX !
 hostname is         dlt14.abaxnet

 dscf (dlt14.abaxnet) : TURBOMOLE V6.6( 19103 ) 21 May 2014 at 15:45:05
 Copyright (C) 2014 TURBOMOLE GmbH, Karlsruhe


    2023-01-23 08:49:05.225 



                             d s c f - program

                   idea & directorship : reinhart ahlrichs
                   program development : marco haeser
                                         michael baer
                           dft version : oliver treutler


                          quantum chemistry group
                          universitaet  karlsruhe
                                  germany




                          References             
                                                 
          TURBOMOLE:                             
              R. Ahlrichs, M. Baer, M. Haeser, H. Horn, and
              C. Koelmel
              Electronic structure calculations on workstation
              computers: the program system TURBOMOLE
              Chem. Phys. Lett. 162: 165 (1989)
          Density Functional:                              
              O. Treutler and R. Ahlrichs                      
              Efficient Molecular Numerical Integration Schemes
              J. Chem. Phys. 102: 346 (1995)                   
          Parallel Version:                                
              Performance of parallel TURBOMOLE for Density    
              Functional Calculations                          
              M. v. Arnim and R. Ahlrichs                      
              J. Comp. Chem. 19: 1746 (1998)                   
                                         




              +--------------------------------------------------+
              | Atomic coordinate, charge and isotop information |
              +--------------------------------------------------+

                    atomic coordinates            atom    charge  isotop
         -1.22090839   -1.92731514   -0.02014289    c      6.000     0
         -3.17197642   -0.20097726   -0.01636907    c      6.000     0
         -2.70277516    2.37820616   -0.01210276    c      6.000     0
         -0.25327787    3.22734129   -0.01489243    c      6.000     0
          1.77669833    1.52800448   -0.02174237    c      6.000     0
          1.26080724   -1.09213179   -0.02149425    c      6.000     0
         -1.63681557   -3.92362477   -0.01911391    h      1.000     0
         -4.27317439    3.67986738   -0.00732436    h      1.000     0
          0.12895339    5.23633651   -0.01720175    h      1.000     0
         -5.77031581   -1.10352522   -0.01355275    n      7.000     0
         -7.44825592    0.46569594   -0.00663803    o      8.000     0
         -6.12146491   -3.37280668   -0.01810688    o      8.000     0
          4.19674889    2.36616263   -0.06166714    n      7.000     0
          4.57709708    4.20893151    0.15971979    h      1.000     0
          5.62474900    1.12651075    0.11165468    h      1.000     0
          3.31113993   -2.83781081   -0.01482947    c      6.000     0
          5.08800835   -4.23839600   -0.00530028    c      6.000     0
          6.63476224   -5.52046896   -0.00089612    h      1.000     0
 
       center of nuclear mass  :   -1.10334183   -0.38219729   -0.01692723
       center of nuclear charge:   -0.99989128   -0.34034936   -0.01498692

   *************************************************************************
   ADC(2) - opt by CAM-B3LYP gaussian                                       
   *************************************************************************



              +--------------------------------------------------+
              |               basis set information              |
              +--------------------------------------------------+

              we will work with the 1s 3p 5d 7f 9g ... basis set
              ...i.e. with spherical basis functions...

   type   atoms  prim   cont   basis
   ---------------------------------------------------------------------------
    c        8     52     37   def2-TZVPD   [6s3p3d1f|12s6p3d1f]
    h        6     11      9   def2-TZVPD   [3s2p|5s2p]
    n        2     52     37   def2-TZVPD   [6s3p3d1f|12s6p3d1f]
    o        2     55     40   def2-TZVPD   [6s4p3d1f|12s7p3d1f]
   ---------------------------------------------------------------------------
   total:   18    696    504
   ---------------------------------------------------------------------------

   total number of primitive shells          :   74
   total number of contracted shells         :  188
   total number of cartesian basis functions :  576
   total number of SCF-basis functions       :  504


 integral neglect threshold       :  0.58E-11
 integral storage threshold THIZE :  0.10E-04
 integral storage threshold THIME :         5


 DENSITY CONVERGENCE CHECK SWITCHED ON !
 SCF CONVERGENCE IF RMS(delta[D]) <     0.1000000000E-07


 symmetry group of the molecule :   c1 

 the group has the following generators :
   c1(z)

    1 symmetry operations found

 there are 1 real representations :   a   

 maximum number of shells which are related by symmetry :  1


    mo occupation :
   irrep   mo's   occupied
    a      504       42
 
 number of basis functions   :          504
 number of occupied orbitals :           42
 

          ------------------------
          nuclear repulsion energy  :   633.687884413    
          ------------------------

 
          -----------------
          -S,T+V- integrals
          -----------------

 1e-integrals will be neglected if expon. factor < 0.580202E-12
 
   Difference densities algorithm switched on.
   The maximal number of linear combinations of
   difference densities is          20 .

 automatic virtual orbital shift switched on 
      shift if e(lumo)-e(homo) < 0.10000000    


 DIIS switched on: error vector is FDS-SDF
 Max. Iterations for DIIS is     :   5
 DIIS matrix (see manual) 
    Scaling factor of diagonals  :  1.200
    threshold for scaling factor :  0.000

 scf convergence criterion : increment of total energy < .1000000D-06
                  and increment of one-electron energy < .1000000D-03


 <geterg> : there is no data group $energy 

  MOs are in ASCII format !


 reading orbital data $scfmo  from file mos . 

 orbital characterization : expanded
 
 mo provided and orthogonalized by Cholesky decomposition

 DSCF restart information will be dumped onto file mos

 
                                              current damping :  0.300
 ITERATION  ENERGY          1e-ENERGY        2e-ENERGY     RMS[dD(SAO)]   TOL
   1  -562.75400266904    -2008.1644235     811.72253645    0.000D+00 0.579D-11
          max. resid. norm for Fia-block=  4.077D-01 for orbital     25a         
          max. resid. fock norm         =  1.029D+01 for orbital    265a         
          Delta Eig. =   934.9290015205 eV 
 
                                              current damping :  0.250
 ITERATION  ENERGY          1e-ENERGY        2e-ENERGY     RMS[dD(SAO)]   TOL
   2  -564.84491579052    -2024.4699648     825.93716456    0.752D-01 0.567D-11
          Norm of current diis error:  2.8208    
          max. resid. norm for Fia-block=  1.538D-01 for orbital     13a         
          max. resid. fock norm         =  3.446D-01 for orbital    487a         
          Delta Eig. =   212.4434520302 eV 
 
                                              current damping :  0.100
 ITERATION  ENERGY          1e-ENERGY        2e-ENERGY     RMS[dD(SAO)]   TOL
   3  -565.04969928299    -2025.1486772     826.41109352    0.174D-01 0.406D-11
          Norm of current diis error:  1.1342    
          max. resid. norm for Fia-block=  5.552D-02 for orbital     28a         
          max. resid. fock norm         =  7.002D-02 for orbital    437a         
          Delta Eig. =    52.5423294161 eV 
 
                                              current damping :  0.100
 ITERATION  ENERGY          1e-ENERGY        2e-ENERGY     RMS[dD(SAO)]   TOL
   4  -565.09958181790    -2025.9300498     827.14258357    0.690D-02 0.296D-11
          Norm of current diis error: 0.32300    
          max. resid. norm for Fia-block=  1.930D-02 for orbital     27a         
          max. resid. fock norm         =  2.358D-02 for orbital     13a         
          Delta Eig. =     4.7158653624 eV 
 
                                              current damping :  0.100
 ITERATION  ENERGY          1e-ENERGY        2e-ENERGY     RMS[dD(SAO)]   TOL
   5  -565.10463257646    -2026.0878310     827.29531402    0.200D-02 0.264D-11
          Norm of current diis error: 0.98303E-01
          max. resid. norm for Fia-block=  5.794D-03 for orbital     42a         
          max. resid. fock norm         =  9.717D-03 for orbital    499a         
 mo-orthogonalization: Cholesky decomposition
          Delta Eig. =     0.4787952354 eV 
 
                                              current damping :  0.150
 ITERATION  ENERGY          1e-ENERGY        2e-ENERGY     RMS[dD(SAO)]   TOL
   6  -565.10528569463    -2026.0442566     827.25108649    0.613D-03 0.250D-11
          Norm of current diis error: 0.41287E-01
          max. resid. norm for Fia-block=  2.950D-03 for orbital     42a         
          max. resid. fock norm         =  3.579D-03 for orbital    499a         
          Delta Eig. =     0.1648209275 eV 
 
                                              current damping :  0.200
 ITERATION  ENERGY          1e-ENERGY        2e-ENERGY     RMS[dD(SAO)]   TOL
   7  -565.10543306305    -2026.0583224     827.26500494    0.310D-03 0.236D-11
          Norm of current diis error: 0.20508E-01
          max. resid. norm for Fia-block=  1.679D-03 for orbital     42a         
          max. resid. fock norm         =  1.805D-03 for orbital     42a         
          Delta Eig. =     0.0421894759 eV 
 
                                              current damping :  0.250
 ITERATION  ENERGY          1e-ENERGY        2e-ENERGY     RMS[dD(SAO)]   TOL
   8  -565.10547625121    -2026.0505145     827.25715386    0.133D-03 0.228D-11
          Norm of current diis error: 0.93369E-02
          max. resid. norm for Fia-block=  1.224D-03 for orbital     40a         
          max. resid. fock norm         =  1.226D-03 for orbital     40a         
          Delta Eig. =     0.0173749038 eV 
 
                                              current damping :  0.300
 ITERATION  ENERGY          1e-ENERGY        2e-ENERGY     RMS[dD(SAO)]   TOL
   9  -565.10548717702    -2026.0522838     827.25891219    0.523D-04 0.221D-11
          Norm of current diis error: 0.50765E-02
          max. resid. norm for Fia-block=  5.715D-04 for orbital     38a         
          max. resid. fock norm         =  5.972D-04 for orbital     38a         
          Delta Eig. =     0.0130451443 eV 
 
                                              current damping :  0.350
 ITERATION  ENERGY          1e-ENERGY        2e-ENERGY     RMS[dD(SAO)]   TOL
  10  -565.10549039338    -2026.0508561     827.25748131    0.355D-04 0.213D-11
          Norm of current diis error: 0.30230E-02
          max. resid. norm for Fia-block=  4.992D-04 for orbital     40a         
          max. resid. fock norm         =  4.998D-04 for orbital     40a         
 mo-orthogonalization: Cholesky decomposition
          Delta Eig. =     0.0058632169 eV 
 
                                              current damping :  0.200
 ITERATION  ENERGY          1e-ENERGY        2e-ENERGY     RMS[dD(SAO)]   TOL
  11  -565.10549168976    -2026.0508261     827.25744995    0.181D-04 0.204D-11
          Norm of current diis error: 0.18015E-02
          max. resid. norm for Fia-block=  3.417D-04 for orbital     40a         
          max. resid. fock norm         =  3.420D-04 for orbital     40a         
          Delta Eig. =     0.0040481531 eV 
 
                                              current damping :  0.250
 ITERATION  ENERGY          1e-ENERGY        2e-ENERGY     RMS[dD(SAO)]   TOL
  12  -565.10549225927    -2026.0509345     827.25755786    0.192D-04 0.191D-11
          Norm of current diis error: 0.93486E-03
          max. resid. norm for Fia-block=  1.897D-04 for orbital     40a         
          max. resid. fock norm         =  1.898D-04 for orbital     40a         
          Delta Eig. =     0.0024039098 eV 
 
                                              current damping :  0.300
 ITERATION  ENERGY          1e-ENERGY        2e-ENERGY     RMS[dD(SAO)]   TOL
  13  -565.10549240649    -2026.0508332     827.25745637    0.968D-05 0.181D-11
          Norm of current diis error: 0.45322E-03
          max. resid. norm for Fia-block=  9.084D-05 for orbital     40a         
          max. resid. fock norm         =  9.098D-05 for orbital     40a         
          Delta Eig. =     0.0010589867 eV 
 
                                              current damping :  0.150
 ITERATION  ENERGY          1e-ENERGY        2e-ENERGY     RMS[dD(SAO)]   TOL
  14  -565.10549243990    -2026.0508193     827.25744243    0.552D-05 0.174D-11
          Norm of current diis error: 0.21697E-03
          max. resid. norm for Fia-block=  4.466D-05 for orbital     40a         
          max. resid. fock norm         =  4.472D-05 for orbital     40a         
          Delta Eig. =     0.0006151601 eV 
 
                                              current damping :  0.200
 ITERATION  ENERGY          1e-ENERGY        2e-ENERGY     RMS[dD(SAO)]   TOL
  15  -565.10549244848    -2026.0508725     827.25749568    0.249D-05 0.168D-11
          Norm of current diis error: 0.80474E-04
          max. resid. norm for Fia-block=  1.055D-05 for orbital     42a         
          max. resid. fock norm         =  2.831D-05 for orbital    214a         
 mo-orthogonalization: Cholesky decomposition
          Delta Eig. =     0.0001984579 eV 
 
                                              current damping :  0.250
 ITERATION  ENERGY          1e-ENERGY        2e-ENERGY     RMS[dD(SAO)]   TOL
  16  -565.10549245052    -2026.0508292     827.25745233    0.184D-05 0.162D-11
          Norm of current diis error: 0.38388E-04
          max. resid. norm for Fia-block=  4.036D-06 for orbital     40a         
          max. resid. fock norm         =  3.067D-05 for orbital    214a         
          Delta Eig. =     0.0002278412 eV 
 
                                              current damping :  0.300
 ITERATION  ENERGY          1e-ENERGY        2e-ENERGY     RMS[dD(SAO)]   TOL
  17  -565.10549245044    -2026.0508576     827.25748076    0.207D-05 0.165D-11
          Norm of current diis error: 0.18028E-04
          max. resid. norm for Fia-block=  2.048D-06 for orbital     42a         
          max. resid. fock norm         =  1.972D-05 for orbital    214a         
          Delta Eig. =     0.0000612768 eV 
 
                                              current damping :  0.350
 ITERATION  ENERGY          1e-ENERGY        2e-ENERGY     RMS[dD(SAO)]   TOL
  18  -565.10549244957    -2026.0508514     827.25747453    0.199D-05 0.168D-11
          Norm of current diis error: 0.93298E-05
          max. resid. norm for Fia-block=  1.308D-06 for orbital     42a         
          max. resid. fock norm         =  3.667D-05 for orbital    214a         
          Delta Eig. =     0.0002050376 eV 

 ENERGY & DENSITY CONVERGED !

 
                                              current damping :  0.200
 ITERATION  ENERGY          1e-ENERGY        2e-ENERGY     RMS[dD(SAO)]   TOL
  19  -565.10549244894    -2026.0508512     827.25747432    0.186D-05 0.165D-11
          max. resid. norm for Fia-block=  3.802D-07 for orbital     42a         
          max. resid. fock norm         =  2.801D-05 for orbital    214a         

 convergence criteria satisfied after 19 iterations


   *************************************************************************
   ADC(2) - opt by CAM-B3LYP gaussian                                       
   *************************************************************************


                  ------------------------------------------ 
                 |  total energy      =   -565.10549244894  |
                  ------------------------------------------ 
                 :  kinetic energy    =    564.55288972111  :
                 :  potential energy  =  -1129.65838217005  :
                 :  virial theorem    =      1.99902212466  :
                 :  wavefunction norm =      1.00000000000  :
                  .......................................... 


 <geterg> : there is no data group $energy 


 <skperg> : $end is missing 


 orbitals $scfmo  will be written to file mos

    irrep                 38a         39a         40a         41a         42a   
 eigenvalues H         -0.45801    -0.44873    -0.42170    -0.36060    -0.32148
            eV         -12.4633    -12.2106    -11.4752     -9.8124     -8.7481
 occupation              2.0000      2.0000      2.0000      2.0000      2.0000 

    irrep                 43a         44a         45a         46a         47a   
 eigenvalues H          0.05338     0.05506     0.06946     0.07401     0.07803
            eV           1.4525      1.4982      1.8900      2.0138      2.1233
 
 
 
 
 ==============================================================================
                           electrostatic moments
 ==============================================================================
 
              nuc           elec       ->  total
 ------------------------------------------------------------------------------
                          charge      
 ------------------------------------------------------------------------------
          84.000000     -84.000000      -0.000000
 
 ------------------------------------------------------------------------------
                       dipole moment  
 ------------------------------------------------------------------------------
   x     -83.990867      86.566062       2.575195
   y     -28.589346      29.694798       1.105452
   z      -1.258901       1.375458       0.116557
 
   | dipole moment | =     2.8049 a.u. =     7.1292 debye 
 
 ------------------------------------------------------------------------------
                     quadrupole moment
 ------------------------------------------------------------------------------
  xx    1580.632795   -1640.038602     -59.405807
  yy     542.499733    -588.277408     -45.777675
  zz       0.082922     -53.817547     -53.734625
  xy      28.586238     -32.367286      -3.781048
  xz       1.258764      -0.589600       0.669164
  yz       0.428467      -0.042993       0.385474
 
     1/3  trace=     -52.972703
     anisotropy=      13.611714
 
 ==============================================================================
 


    ------------------------------------------------------------------------
         total  cpu-time : 36 minutes and 50 seconds
         total wall-time : 36 minutes and 53 seconds
    ------------------------------------------------------------------------


   ****  dscf : all done  ****


    2023-01-23 09:25:57.859 

