 hostname is         dlt14.abaxnet
 this is node-proc. number 0 running on node dlt14.abaxnet
 the total number of node-proc. spawned is   1

 ricc2 (dlt14.abaxnet) : TURBOMOLE V6.6( 19125 ) 27 May 2014 at 14:24:19
 Copyright (C) 2014 TURBOMOLE GmbH, Karlsruhe


    2023-01-25 00:44:25.762 



                              R I C C 2 - PROGRAM

                          the quantum chemistry groups
                             at the universities in
                           Karlsruhe, Bochum & Mainz
                                   Germany



   *-----------------------------------------------------------------------*
   |                     program will use  1 thread(s)                     |
   *-----------------------------------------------------------------------*


              +--------------------------------------------------+
              | Atomic coordinate, charge and isotop information |
              +--------------------------------------------------+

                    atomic coordinates            atom    charge  isotop
          1.50356141    1.66262966   -0.02744545    c      6.000     0
          3.16971567   -0.35419233   -0.02980800    c      6.000     0
          2.30713897   -2.81997123   -0.03693066    c      6.000     0
         -0.25532791   -3.25083900   -0.03780139    c      6.000     0
         -1.96924556   -1.24216377   -0.03360391    c      6.000     0
         -1.07083773    1.26043020   -0.03161722    c      6.000     0
          2.25463662    3.56064820   -0.02476487    h      1.000     0
          3.64512626   -4.35899494   -0.03880540    h      1.000     0
         -0.96315951   -5.17044571   -0.04723262    h      1.000     0
          5.87645441    0.13332272   -0.02406335    n      7.000     0
          7.29500065   -1.67427709   -0.02708247    o      8.000     0
          6.57823063    2.32180403   -0.01600487    o      8.000     0
         -4.51915965   -1.71191216   -0.11062424    n      7.000     0
         -5.11365661   -3.47106041    0.28469861    h      1.000     0
         -5.71968325   -0.32809834    0.38206014    h      1.000     0
         -2.89342321    3.42890654   -0.04406126    c      6.000     0
         -1.89417814    5.22453847   -0.08970981    h      1.000     0
         -4.14043049    3.35717161   -1.68863536    h      1.000     0
         -4.09076259    3.43250354    1.64143212    h      1.000     0
 
       center of nuclear mass  :    1.54010137   -0.16617166   -0.03319940
       center of nuclear charge:    1.36517870   -0.14393560   -0.02895095

              +--------------------------------------------------+
              |               basis set information              |
              +--------------------------------------------------+

              we will work with the 1s 3p 5d 7f 9g ... basis set
              ...i.e. with spherical basis functions...

   type   atoms  prim   cont   basis
   ---------------------------------------------------------------------------
    c        7     52     37   def2-TZVPD   [6s3p3d1f|12s6p3d1f]
    h        8     11      9   def2-TZVPD   [3s2p|5s2p]
    n        2     52     37   def2-TZVPD   [6s3p3d1f|12s6p3d1f]
    o        2     55     40   def2-TZVPD   [6s4p3d1f|12s7p3d1f]
   ---------------------------------------------------------------------------
   total:   19    666    485
   ---------------------------------------------------------------------------

   total number of primitive shells          :   74
   total number of contracted shells         :  185
   total number of cartesian basis functions :  551
   total number of SCF-basis functions       :  485



   =========================================================================


     restricted closed shell calculation for the wavefunction models:
               ADC(2)     - Algebraic Diagrammatic Construction to 2. Order (strict)


     global parameters for ricc2 program:

        hard restart (reuse of interm.) :  disabled
        soft restart (reuse of vectors) :  disabled
        threshold for vector function   :    0.100000E-06
        convergence threshold energy    :    0.100000E-07
        linear dependence threshold     :    0.100000E-13
        global print level              :      1
        maximum number of iterations    :   500
        maximum number DIIS vectors     :    10
        max. dim. of reduced space      :   100
        core memory limit (MB)          :   500
        disk space limit (MB)           :   none


   =========================================================================
     "cartesian on" in $drvopt is ignored by $ricc2

    der. integral neglect threshold  :  0.10E-08
    integral neglect threshold       :  0.60E-12
    integral storage threshold THIZE :  0.10E-04
    integral storage threshold THIME :         5


                  +------------------------------------------+
                  |     Auxiliary basis set information      |
                  +------------------------------------------+

              we will work with the 1s 3p 5d 7f 9g ... basis set
              ...i.e. with spherical basis functions...

   type   atoms  prim   cont   basis
   ---------------------------------------------------------------------------
    c        7     97     92   def2-TZVPD   [9s7p5d4f1g|9s7p6d4f1g]
    h        8     32     24   def2-TZVPD   [5s3p2d|5s4p3d]
    n        2     97     92   def2-TZVPD   [9s7p5d4f1g|9s7p6d4f1g]
    o        2     97     92   def2-TZVPD   [9s7p5d4f1g|9s7p6d4f1g]
   ---------------------------------------------------------------------------
   total:   19   1323   1204
   ---------------------------------------------------------------------------

   total number of primitive shells          :   93
   total number of contracted shells         :  366
   total number of cartesian basis functions : 1473
   total number of SCF-basis functions       : 1204


 symmetry group of the molecule :   c1 

 the group has the following generators :
   c1(z)

    1 symmetry operations found

 there are 1 real representations :   a   

 maximum number of shells which are related by symmetry :  1


 The symmetry information takes   1 MB

*---------------------------------------------------------------------*
|               simplified C1 algorithm will be applied               |
*---------------------------------------------------------------------*
  MOs are in ASCII format !


 reading orbital data $scfmo  from file mos . 

 orbital characterization : scfconv=7
 

         --------------------------------------------------------------
                   checking mo's by calculating trace(D*S)

              number of electrons : 
                 from trace(D*S)         :   80.000000000002
                 from occupation numbers :   80.000000000000

              molecular charge           :    0.000000000000
         --------------------------------------------------------------

 time elapsed for calculating density matrices :   0.017 sec
 all orbitals will be active in the correlation treatment


   Molecular Orbital Statistic:
   ============================

   -----------------------------
   orbitals in total:
   -----------------------------
    frozen occupied :      0
    active occupied :     40
    active virtual  :    445
    frozen virtual  :      0
    all together    :    485
   -----------------------------


     time in riccmos       cpu:  0.22 sec    wall:  0.38 sec    ratio:  0.6

     total memory allocated for calculation of (Q|P)**(-1/2) : 17 MiB


     calculation of (P|Q) ...
     time in lp2sym        cpu:  0.03 sec    wall:  0.03 sec    ratio:  1.0


     calculation of the Cholesky decomposition of (P|Q)**(-1) ...
     time in invmetri      cpu:  0.15 sec    wall:  0.25 sec    ratio:  0.6

   threshold for RMS(d[D]) in SCF was     :  0.10E-07
   integral neglect threshold             :  0.60E-12
   derivative integral neglect threshold  :  0.10E-08


 setting up bound for integral derivative estimation

 increment for numerical differentiation : 0.00050000

   =========================================================================

     Energy of reference wave function is  -528.4525189111999
     Maximum orbital residual is           0.2226184657329E-04


     Number of symmetry-nonredundant auxiliary basis functions:     1204

     Block lengths for integral files:
        frozen occupied (BOI):        0 MiB
        active occupied (BJI):        1 MiB
        active virtual  (BAI):        5 MiB
        frozen virtual  (BGI):        0 MiB
               general  (BTI):        5 MiB

   =========================================================================




   **************************************************************************
   *                                                                        *
   *          OPTIMIZATION OF THE GROUND STATE CLUSTER AMPLITUDES           *
   *                                                                        *
   **************************************************************************


   Iter.   MP2 energy       Norm(Omega)    Norm(t1)  Norm(t2)     cpu    wall
   ...........................................................................
    1   -530.6530894854    0.1667631033     0.00000   0.47007    0.95    1.15
   ...........................................................................


     time in total         cpu:  0 min 57 s  wall:  1 min  9 s  ratio:  0.8


     **********************************************************************
     *                                                                    *
     *   RHF  energy                             :   -528.4525189112      *
     *   MP2 correlation energy                  :     -2.2005705742      *
     *                                                                    *
     *   Final MP2 energy                        :   -530.6530894854      *
     *                                                                    *
     *   Norm of MP1 T2 amplitudes               :      0.4700683051      *
     *                                                                    *
     *   D1 diagnostic                           :      0.0571            *
     *                                                                    *
     **********************************************************************



 **************************************************************
 *                                                            *
 *    OPTIMIZATION OF THE EXCITED STATE CLUSTER AMPLITUDES    *
 *                                                            *
 **************************************************************


  preoptimize excitation energies/vectors using CCS:

  ==================================================


 ======== LINEAR CC RESPONSE SOLVER ========

    threshold for convergence: 0.10E-02
    maximum number of simultaneous jacoby matrix transformations: 15
                                                
     summary of start vectors generation:
     -------------------------------------------
     type of solution vectors      : RE0
     symmetry                      : a  
     number of vectors requested   :    15
     number of vectors generated   :    15
       -- guessed as rhs/(e_a-e_i) :    15
     -------------------------------------------
                                                

    Iter  #Vectors  time (min)    max. residual 
    --------------------------------------------
      1      15         3.14     0.15E+00  (  6)
      2      15         3.05     0.57E-01  (  1)
      3      15         3.10     0.70E-01  (  8)
      4      15         3.09     0.14E+00  ( 14)
      5      15         3.08     0.17E+00  (  4)
  dimension of red. space became too large.
  try internal restart...
      6      15         3.10     0.91E-01  (  2)
                                                
     summary of start vectors generation:
     -------------------------------------------
     type of solution vectors      : RE0
     symmetry                      : a  
     number of vectors requested   :    15
     number of vectors generated   :    15
       -- restarted from file      :    15
     -------------------------------------------
                                                

    Iter  #Vectors  time (min)    max. residual 
    --------------------------------------------
      7      15         3.06     0.91E-01  (  2)
      8      13         2.72     0.41E-01  (  1)
      9      11         2.27     0.99E-02  (  1)
     10       9         1.91     0.28E-02  (  1)
     11       3         0.67     0.78E-03  (  1)
    --------------------------------------------
    converged in 11 iterations

         Total time         29.22 minutes


 ===========================================




 Note that this is the intermediate result of a preoptimization!
 The convergence threshold was  0.1E-02 only!


 +==================================================================+
 | sym | multi | state |          CCS excitation energies           |
 |     |       |       +--------------------------------------------+
 |     |       |       |   Hartree    |     eV       |     cm-1     |
 +==================================================================+
 | a   |   1   |   1   |    0.1937335 |      5.27176 |    42519.591 |
 | a   |   1   |   2   |    0.1965837 |      5.34931 |    43145.131 |
 | a   |   1   |   3   |    0.2055608 |      5.59359 |    45115.380 |
 | a   |   1   |   4   |    0.2081563 |      5.66422 |    45685.022 |
 | a   |   1   |   5   |    0.2254647 |      6.13521 |    49483.786 |
 | a   |   1   |   6   |    0.2529574 |      6.88332 |    55517.738 |
 | a   |   1   |   7   |    0.2543671 |      6.92168 |    55827.128 |
 | a   |   1   |   8   |    0.2573749 |      7.00353 |    56487.269 |
 | a   |   1   |   9   |    0.2656755 |      7.22940 |    58309.036 |
 | a   |   1   |  10   |    0.2736774 |      7.44714 |    60065.256 |
 | a   |   1   |  11   |    0.2749911 |      7.48289 |    60353.575 |
 | a   |   1   |  12   |    0.2844786 |      7.74106 |    62435.833 |
 | a   |   1   |  13   |    0.2943673 |      8.01014 |    64606.145 |
 | a   |   1   |  14   |    0.2950430 |      8.02853 |    64754.457 |
 | a   |   1   |  15   |    0.2969968 |      8.08169 |    65183.266 |
 +==================================================================+




  preoptimize ADC(2) excitation energies/vectors using a quasi linear algorithm:
  ==============================================================================


 ======== LINEAR CC RESPONSE SOLVER ========

    threshold for convergence: 0.10E-02
    maximum number of simultaneous jacoby matrix transformations: 15
                                                
     summary of start vectors generation:
     -------------------------------------------
     type of solution vectors      : RE0
     symmetry                      : a  
     number of vectors requested   :    15
     number of vectors generated   :    15
       -- restarted from file      :    15
     -------------------------------------------
                                                

    Iter  #Vectors  time (min)    max. residual 
    --------------------------------------------
 threshold for this macro iteration:  4.908596151746444E-002
      1      15        24.83     0.94E-01  (  1)
 ...adapted threshold to:  6.044259541258390E-002
      2       8        12.23     0.34E-01  (  7)
                                                
     summary of start vectors generation:
     -------------------------------------------
     type of solution vectors      : RE0
     symmetry                      : a  
     number of vectors requested   :    15
     number of vectors generated   :    15
       -- restarted from file      :    15
     -------------------------------------------
                                                

    Iter  #Vectors  time (min)    max. residual 
    --------------------------------------------
 threshold for this macro iteration:  6.406430825685094E-003
      3      15        21.89     0.33E-01  (  7)
      4      15        22.27     0.17E-01  (  7)
      5      15        21.97     0.11E-01  ( 11)
      6       5         7.37     0.13E-01  ( 15)
      7       1         1.79     0.11E-01  ( 15)
      8       1         1.85     0.71E-02  ( 15)
      9       1         1.77     0.68E-02  ( 15)
     10       1         1.78     0.70E-01  ( 15)
 ...adapted threshold to:  1.186377513721759E-002
     11       1         1.78     0.68E-01  ( 11)
 ...adapted threshold to:  1.186701960721875E-002
     12       1         1.90     0.30E-01  ( 11)
 ...adapted threshold to:  1.243978017513120E-002
     13       1         1.96     0.15E-01  ( 11)
 ...adapted threshold to:  1.276558711795014E-002
     14       1         1.84     0.10E-01  ( 11)
                                                
     summary of start vectors generation:
     -------------------------------------------
     type of solution vectors      : RE0
     symmetry                      : a  
     number of vectors requested   :    15
     number of vectors generated   :    15
       -- restarted from file      :    15
     -------------------------------------------
                                                

    Iter  #Vectors  time (min)    max. residual 
    --------------------------------------------
 threshold for this macro iteration:  5.268416839045637E-003
     15      15        22.08     0.11E-01  ( 11)
     16       1         1.76     0.16E-01  ( 11)
     17       1         1.77     0.12E-01  ( 11)
     18       1         1.75     0.62E-02  ( 11)
     19       1         1.80     0.30E-01  ( 15)
     20       1         1.80     0.20E-01  ( 15)
     21       1         1.75     0.15E-01  ( 15)
     22       1         1.78     0.12E-01  ( 15)
     23       1         1.82     0.70E-02  ( 15)
     24       1         1.78     0.46E-02  ( 14)
                                                
     summary of start vectors generation:
     -------------------------------------------
     type of solution vectors      : RE0
     symmetry                      : a  
     number of vectors requested   :    15
     number of vectors generated   :    15
       -- restarted from file      :    15
     -------------------------------------------
                                                

    Iter  #Vectors  time (min)    max. residual 
    --------------------------------------------
 threshold for this macro iteration:  1.343990353909197E-003
     25      15        22.67     0.35E-02  ( 15)
 ...adapted threshold to:  2.134418517066305E-003
     26       1         1.76     0.97E-02  ( 15)
 ...adapted threshold to:  2.743916218251652E-003
     27       1         1.78     0.69E-02  ( 15)
 ...adapted threshold to:  2.906268710428317E-003
     28       1         1.75     0.52E-02  ( 15)
 ...adapted threshold to:  2.953186351297432E-003
     29       1         1.77     0.31E-02  ( 15)
 ...adapted threshold to:  2.967968865381754E-003
     30       1         1.78     0.16E-02  ( 15)
                                                
     summary of start vectors generation:
     -------------------------------------------
     type of solution vectors      : RE0
     symmetry                      : a  
     number of vectors requested   :    15
     number of vectors generated   :    15
       -- restarted from file      :    15
     -------------------------------------------
                                                

    Iter  #Vectors  time (min)    max. residual 
    --------------------------------------------
 threshold for this macro iteration:  1.000000000000000E-003
     31      15        22.34     0.13E-02  ( 15)
     32       1         1.76     0.37E-02  ( 15)
     33       1         1.77     0.38E-02  ( 15)
     34       1         1.75     0.21E-02  ( 15)
     35       1         1.78     0.71E-03  ( 15)
    --------------------------------------------
    converged in 35 iterations

         Total time        224.24 minutes


 ===========================================




 Note that this is the intermediate result of a preoptimization!
 The convergence threshold was  0.1E-02 only!


 +==================================================================+
 | sym | multi | state |          ADC(2) excitation energies        |
 |     |       |       +--------------------------------------------+
 |     |       |       |   Hartree    |     eV       |     cm-1     |
 +==================================================================+
 | a   |   1   |   1   |    0.1381579 |      3.75947 |    30322.146 |
 | a   |   1   |   2   |    0.1603617 |      4.36367 |    35195.335 |
 | a   |   1   |   3   |    0.1631501 |      4.43954 |    35807.311 |
 | a   |   1   |   4   |    0.1734878 |      4.72084 |    38076.174 |
 | a   |   1   |   5   |    0.2024799 |      5.50976 |    44439.201 |
 | a   |   1   |   6   |    0.2051438 |      5.58225 |    45023.860 |
 | a   |   1   |   7   |    0.2220381 |      6.04196 |    48731.730 |
 | a   |   1   |   8   |    0.2323343 |      6.32214 |    50991.493 |
 | a   |   1   |   9   |    0.2338800 |      6.36420 |    51330.729 |
 | a   |   1   |  10   |    0.2362179 |      6.42782 |    51843.837 |
 | a   |   1   |  11   |    0.2469465 |      6.71976 |    54198.501 |
 | a   |   1   |  12   |    0.2555234 |      6.95315 |    56080.903 |
 | a   |   1   |  13   |    0.2576622 |      7.01135 |    56550.325 |
 | a   |   1   |  14   |    0.2601823 |      7.07992 |    57103.409 |
 | a   |   1   |  15   |    0.2630674 |      7.15843 |    57736.624 |
 +==================================================================+





  solve for ADC(2) excitation energies/vectors using a DIIS algorithm:
  =================================================================
                                                
     summary of start vectors generation:
     -------------------------------------------
     type of solution vectors      : RE0
     symmetry                      : a  
     number of vectors requested   :    15
     number of vectors generated   :    15
       -- restarted from file      :    15
     -------------------------------------------
                                                


 ========= DIIS CC RESPONSE SOLVER =========

    threshold for convergence:0.10E-05
    max. nb. of DIIS vectors :      10
    maximum number of simultaneous jacoby matrix transformations: 15

    Iter  #Vectors  time (min)   residual
    --------------------------------------
      1      15        22.19     0.49E-03  ( 12)    0.19E-02
      2      15        22.53     0.42E-03  ( 12)    0.17E-02
      3      15        22.02     0.27E-03  ( 12)    0.16E-02
      4      15        22.25     0.17E-03  ( 12)    0.22E-02
      5      15        22.11     0.12E-03  ( 12)    0.24E-02
      6      12        17.76     0.93E-04  ( 12)    0.19E-02
      7      10        15.20     0.59E-04  ( 12)    0.26E-02
      8       9        13.27     0.44E-04  ( 15)    0.17E-02
      9       8        12.07     0.39E-04  ( 15)    0.18E-02
     10       5         7.34     0.33E-04  ( 15)    0.16E-02
     11       4         5.87     0.25E-04  ( 15)    0.16E-02
     12       4         5.86     0.17E-04  ( 15)    0.16E-02
     13       4         5.91     0.12E-04  ( 15)    0.16E-02
     14       4         5.90     0.93E-05  ( 15)    0.16E-02
     15       4         5.98     0.68E-05  ( 15)    0.16E-02
     16       3         4.57     0.55E-05  ( 15)    0.16E-02
     17       3         4.64     0.47E-05  ( 15)    0.16E-02
     18       2         3.10     0.39E-05  ( 15)    0.16E-02
     19       2         3.13     0.34E-05  ( 15)    0.16E-02
     20       2         3.15     0.27E-05  ( 15)    0.16E-02
     21       1         1.75     0.23E-05  ( 15)    0.16E-02
     22       1         1.75     0.19E-05  ( 15)    0.16E-02
     23       1         1.75     0.13E-05  ( 15)    0.16E-02
     24       1         1.76     0.94E-06  ( 15)    0.16E-02
    --------------------------------------
    converged in  24 iterations

   Total time        231.88 minutes


 ===========================================





 +================================================================================+
 | sym | multi | state |          ADC(2) excitation energies    |  %t1   |  %t2   |
 |     |       |       +----------------------------------------+--------+--------+
 |     |       |       |   Hartree    |    eV      |    cm-1    |    %   |    %   |
 +================================================================================+
 | a   |   1   |   1   |    0.1381588 |    3.75949 |  30322.344 |  89.72 |  10.28 |
 | a   |   1   |   2   |    0.1603651 |    4.36376 |  35196.072 |  88.18 |  11.82 |
 | a   |   1   |   3   |    0.1631507 |    4.43956 |  35807.447 |  90.13 |   9.87 |
 | a   |   1   |   4   |    0.1734885 |    4.72086 |  38076.335 |  89.63 |  10.37 |
 | a   |   1   |   5   |    0.2024801 |    5.50976 |  44439.245 |  91.68 |   8.32 |
 | a   |   1   |   6   |    0.2051450 |    5.58228 |  45024.117 |  88.83 |  11.17 |
 | a   |   1   |   7   |    0.2220387 |    6.04198 |  48731.862 |  88.80 |  11.20 |
 | a   |   1   |   8   |    0.2323343 |    6.32214 |  50991.488 |  91.17 |   8.83 |
 | a   |   1   |   9   |    0.2338820 |    6.36425 |  51331.170 |  90.83 |   9.17 |
 | a   |   1   |  10   |    0.2362205 |    6.42789 |  51844.403 |  90.46 |   9.54 |
 | a   |   1   |  11   |    0.2469192 |    6.71901 |  54192.506 |  83.40 |  16.60 |
 | a   |   1   |  12   |    0.2555104 |    6.95279 |  56078.061 |  91.16 |   8.84 |
 | a   |   1   |  13   |    0.2576602 |    7.01129 |  56549.875 |  91.51 |   8.49 |
 | a   |   1   |  14   |    0.2601755 |    7.07974 |  57101.925 |  91.03 |   8.97 |
 | a   |   1   |  15   |    0.2629859 |    7.15621 |  57718.731 |  84.26 |  15.74 |
 +================================================================================+


       Energy:     0.1381588 H      3.75949 eV    30322.344 cm-1

     +=======================================================================+
     | type: RE0                    symmetry: a               state:    1    |
     +-----------------------+-----------------------+-----------------------+
     | occ. orb.  index spin | vir. orb.  index spin |  coeff/|amp|     %    |
     +=======================+=======================+=======================+
     |   37 a       37       |   42 a       42       |   0.88699      78.7   |
     |   37 a       37       |   55 a       55       |  -0.28777       8.3   |
     |   37 a       37       |   56 a       56       |   0.18855       3.6   |
     |   37 a       37       |   41 a       41       |  -0.12954       1.7   |
     |   37 a       37       |   62 a       62       |   0.11035       1.2   |
     |   37 a       37       |   61 a       61       |   0.08913       0.8   |
     |   37 a       37       |   54 a       54       |   0.08842       0.8   |
     |   37 a       37       |   59 a       59       |   0.07411       0.5   |
     +=======================+=======================+=======================+
     norm of printed elements:  0.95533


       Energy:     0.1603651 H      4.36376 eV    35196.072 cm-1

     +=======================================================================+
     | type: RE0                    symmetry: a               state:    2    |
     +-----------------------+-----------------------+-----------------------+
     | occ. orb.  index spin | vir. orb.  index spin |  coeff/|amp|     %    |
     +=======================+=======================+=======================+
     |   40 a       40       |   42 a       42       |   0.94795      89.9   |
     |   40 a       40       |   41 a       41       |  -0.15044       2.3   |
     |   39 a       39       |   47 a       47       |  -0.12030       1.4   |
     |   40 a       40       |   55 a       55       |  -0.08798       0.8   |
     |   40 a       40       |   50 a       50       |  -0.06669       0.4   |
     |   40 a       40       |   56 a       56       |   0.06577       0.4   |
     +=======================+=======================+=======================+
     norm of printed elements:  0.95223


       Energy:     0.1631507 H      4.43956 eV    35807.447 cm-1

     +=======================================================================+
     | type: RE0                    symmetry: a               state:    3    |
     +-----------------------+-----------------------+-----------------------+
     | occ. orb.  index spin | vir. orb.  index spin |  coeff/|amp|     %    |
     +=======================+=======================+=======================+
     |   35 a       35       |   42 a       42       |   0.86358      74.6   |
     |   35 a       35       |   55 a       55       |  -0.26754       7.2   |
     |   36 a       36       |   42 a       42       |   0.17701       3.1   |
     |   35 a       35       |   56 a       56       |   0.17404       3.0   |
     |   35 a       35       |   41 a       41       |  -0.12650       1.6   |
     |   32 a       32       |   42 a       42       |   0.11238       1.3   |
     |   35 a       35       |   62 a       62       |   0.10010       1.0   |
     |   35 a       35       |   54 a       54       |   0.08252       0.7   |
     |   31 a       31       |   42 a       42       |   0.08133       0.7   |
     |   35 a       35       |   61 a       61       |   0.08082       0.7   |
     |   22 a       22       |   42 a       42       |   0.07210       0.5   |
     |   35 a       35       |   59 a       59       |   0.06836       0.5   |
     |   35 a       35       |   47 a       47       |  -0.06573       0.4   |
     +=======================+=======================+=======================+
     norm of printed elements:  0.95178


       Energy:     0.1734885 H      4.72086 eV    38076.335 cm-1

     +=======================================================================+
     | type: RE0                    symmetry: a               state:    4    |
     +-----------------------+-----------------------+-----------------------+
     | occ. orb.  index spin | vir. orb.  index spin |  coeff/|amp|     %    |
     +=======================+=======================+=======================+
     |   40 a       40       |   47 a       47       |   0.74249      55.1   |
     |   39 a       39       |   42 a       42       |   0.55476      30.8   |
     |   40 a       40       |   48 a       48       |   0.13799       1.9   |
     |   40 a       40       |   56 a       56       |   0.12866       1.7   |
     |   39 a       39       |   50 a       50       |  -0.11720       1.4   |
     |   40 a       40       |   53 a       53       |  -0.10139       1.0   |
     |   39 a       39       |   51 a       51       |   0.09989       1.0   |
     |   39 a       39       |   41 a       41       |  -0.08447       0.7   |
     |   40 a       40       |   45 a       45       |  -0.06918       0.5   |
     |   40 a       40       |   46 a       46       |  -0.06135       0.4   |
     |   39 a       39       |   62 a       62       |  -0.05894       0.3   |
     |   40 a       40       |   59 a       59       |  -0.05890       0.3   |
     +=======================+=======================+=======================+
     norm of printed elements:  0.95127


       Energy:     0.2024801 H      5.50976 eV    44439.245 cm-1

     +=======================================================================+
     | type: RE0                    symmetry: a               state:    5    |
     +-----------------------+-----------------------+-----------------------+
     | occ. orb.  index spin | vir. orb.  index spin |  coeff/|amp|     %    |
     +=======================+=======================+=======================+
     |   40 a       40       |   41 a       41       |   0.84073      70.7   |
     |   40 a       40       |   43 a       43       |   0.24988       6.2   |
     |   36 a       36       |   41 a       41       |   0.18137       3.3   |
     |   39 a       39       |   42 a       42       |   0.15518       2.4   |
     |   40 a       40       |   44 a       44       |   0.13789       1.9   |
     |   40 a       40       |   42 a       42       |   0.13413       1.8   |
     |   40 a       40       |   46 a       46       |   0.13223       1.7   |
     |   40 a       40       |   45 a       45       |   0.11005       1.2   |
     |   38 a       38       |   42 a       42       |   0.08795       0.8   |
     |   40 a       40       |   60 a       60       |  -0.08391       0.7   |
     |   40 a       40       |   72 a       72       |   0.08373       0.7   |
     |   40 a       40       |   66 a       66       |  -0.08111       0.7   |
     |   36 a       36       |   44 a       44       |   0.08110       0.7   |
     |   33 a       33       |   41 a       41       |   0.07412       0.5   |
     |   40 a       40       |   69 a       69       |   0.07306       0.5   |
     |   39 a       39       |   41 a       41       |  -0.06691       0.4   |
     |   36 a       36       |   43 a       43       |   0.05963       0.4   |
     |   40 a       40       |   61 a       61       |   0.05732       0.3   |
     |   40 a       40       |   68 a       68       |  -0.05729       0.3   |
     +=======================+=======================+=======================+
     norm of printed elements:  0.95322


       Energy:     0.2051450 H      5.58228 eV    45024.117 cm-1

     +=======================================================================+
     | type: RE0                    symmetry: a               state:    6    |
     +-----------------------+-----------------------+-----------------------+
     | occ. orb.  index spin | vir. orb.  index spin |  coeff/|amp|     %    |
     +=======================+=======================+=======================+
     |   39 a       39       |   42 a       42       |   0.64607      41.7   |
     |   38 a       38       |   42 a       42       |   0.48313      23.3   |
     |   40 a       40       |   47 a       47       |  -0.44911      20.2   |
     |   40 a       40       |   41 a       41       |  -0.19137       3.7   |
     |   38 a       38       |   55 a       55       |  -0.10554       1.1   |
     |   39 a       39       |   41 a       41       |  -0.09143       0.8   |
     |   36 a       36       |   47 a       47       |  -0.08754       0.8   |
     |   39 a       39       |   55 a       55       |  -0.08118       0.7   |
     |   38 a       38       |   56 a       56       |   0.07185       0.5   |
     |   38 a       38       |   41 a       41       |  -0.07126       0.5   |
     |   40 a       40       |   48 a       48       |  -0.06831       0.5   |
     |   39 a       39       |   56 a       56       |   0.05596       0.3   |
     |   40 a       40       |   53 a       53       |   0.05320       0.3   |
     |   40 a       40       |   56 a       56       |  -0.04451       0.2   |
     |   38 a       38       |   50 a       50       |   0.03750       0.1   |
     |   40 a       40       |   62 a       62       |   0.03714       0.1   |
     |   36 a       36       |   41 a       41       |  -0.03586       0.1   |
     |   38 a       38       |   62 a       62       |   0.03511       0.1   |
     |   33 a       33       |   47 a       47       |  -0.03504       0.1   |
     +=======================+=======================+=======================+
     norm of printed elements:  0.95228


       Energy:     0.2220387 H      6.04198 eV    48731.862 cm-1

     +=======================================================================+
     | type: RE0                    symmetry: a               state:    7    |
     +-----------------------+-----------------------+-----------------------+
     | occ. orb.  index spin | vir. orb.  index spin |  coeff/|amp|     %    |
     +=======================+=======================+=======================+
     |   38 a       38       |   42 a       42       |   0.77838      60.6   |
     |   39 a       39       |   42 a       42       |  -0.39874      15.9   |
     |   40 a       40       |   47 a       47       |   0.27863       7.8   |
     |   38 a       38       |   55 a       55       |  -0.15305       2.3   |
     |   36 a       36       |   47 a       47       |   0.13450       1.8   |
     |   38 a       38       |   41 a       41       |  -0.11536       1.3   |
     |   38 a       38       |   56 a       56       |   0.10352       1.1   |
     |   40 a       40       |   55 a       55       |   0.07130       0.5   |
     |   39 a       39       |   41 a       41       |   0.06691       0.4   |
     |   38 a       38       |   54 a       54       |   0.04612       0.2   |
     |   37 a       37       |   44 a       44       |  -0.04601       0.2   |
     |   38 a       38       |   50 a       50       |   0.04575       0.2   |
     |   38 a       38       |   62 a       62       |   0.04573       0.2   |
     |   40 a       40       |   50 a       50       |  -0.04547       0.2   |
     |   38 a       38       |   47 a       47       |  -0.04449       0.2   |
     |   38 a       38       |   59 a       59       |   0.04413       0.2   |
     |   39 a       39       |   55 a       55       |   0.04158       0.2   |
     |   37 a       37       |   46 a       46       |   0.03860       0.1   |
     |   38 a       38       |   61 a       61       |   0.03815       0.1   |
     |   37 a       37       |  137 a      137       |   0.03661       0.1   |
     +=======================+=======================+=======================+
     norm of printed elements:  0.93805


       Energy:     0.2323343 H      6.32214 eV    50991.488 cm-1

     +=======================================================================+
     | type: RE0                    symmetry: a               state:    8    |
     +-----------------------+-----------------------+-----------------------+
     | occ. orb.  index spin | vir. orb.  index spin |  coeff/|amp|     %    |
     +=======================+=======================+=======================+
     |   40 a       40       |   43 a       43       |   0.79847      63.8   |
     |   40 a       40       |   46 a       46       |  -0.25859       6.7   |
     |   40 a       40       |   41 a       41       |  -0.20755       4.3   |
     |   40 a       40       |   48 a       48       |   0.16558       2.7   |
     |   40 a       40       |   50 a       50       |   0.15448       2.4   |
     |   40 a       40       |   55 a       55       |  -0.14791       2.2   |
     |   36 a       36       |   43 a       43       |   0.12862       1.7   |
     |   40 a       40       |   56 a       56       |   0.12044       1.5   |
     |   40 a       40       |   54 a       54       |   0.11616       1.3   |
     |   40 a       40       |   68 a       68       |   0.11198       1.3   |
     |   39 a       39       |   41 a       41       |  -0.10785       1.2   |
     |   40 a       40       |   62 a       62       |   0.10326       1.1   |
     |   40 a       40       |   49 a       49       |  -0.09357       0.9   |
     |   39 a       39       |   47 a       47       |   0.08164       0.7   |
     |   39 a       39       |   43 a       43       |  -0.07972       0.6   |
     |   36 a       36       |   42 a       42       |  -0.07886       0.6   |
     |   40 a       40       |   72 a       72       |   0.06972       0.5   |
     |   39 a       39       |   42 a       42       |  -0.06099       0.4   |
     |   40 a       40       |   78 a       78       |   0.06097       0.4   |
     |   40 a       40       |   42 a       42       |  -0.05416       0.3   |
     +=======================+=======================+=======================+
     norm of printed elements:  0.94327


       Energy:     0.2338820 H      6.36425 eV    51331.170 cm-1

     +=======================================================================+
     | type: RE0                    symmetry: a               state:    9    |
     +-----------------------+-----------------------+-----------------------+
     | occ. orb.  index spin | vir. orb.  index spin |  coeff/|amp|     %    |
     +=======================+=======================+=======================+
     |   40 a       40       |   44 a       44       |   0.65520      42.9   |
     |   40 a       40       |   55 a       55       |  -0.31369       9.8   |
     |   40 a       40       |   48 a       48       |   0.31049       9.6   |
     |   40 a       40       |   43 a       43       |  -0.29130       8.5   |
     |   40 a       40       |   50 a       50       |   0.20425       4.2   |
     |   40 a       40       |   56 a       56       |   0.19334       3.7   |
     |   40 a       40       |   51 a       51       |  -0.16072       2.6   |
     |   39 a       39       |   47 a       47       |   0.15773       2.5   |
     |   36 a       36       |   42 a       42       |  -0.13260       1.8   |
     |   40 a       40       |   61 a       61       |   0.13099       1.7   |
     |   40 a       40       |   72 a       72       |  -0.09112       0.8   |
     |   40 a       40       |   54 a       54       |   0.08533       0.7   |
     |   40 a       40       |   69 a       69       |   0.08434       0.7   |
     |   36 a       36       |   41 a       41       |   0.08387       0.7   |
     |   40 a       40       |   62 a       62       |   0.07502       0.6   |
     |   36 a       36       |   44 a       44       |   0.07274       0.5   |
     |   40 a       40       |   73 a       73       |   0.06912       0.5   |
     |   40 a       40       |   71 a       71       |   0.06706       0.4   |
     |   40 a       40       |   57 a       57       |   0.06424       0.4   |
     |   40 a       40       |   45 a       45       |  -0.06069       0.4   |
     +=======================+=======================+=======================+
     norm of printed elements:  0.93124


       Energy:     0.2362205 H      6.42789 eV    51844.403 cm-1

     +=======================================================================+
     | type: RE0                    symmetry: a               state:   10    |
     +-----------------------+-----------------------+-----------------------+
     | occ. orb.  index spin | vir. orb.  index spin |  coeff/|amp|     %    |
     +=======================+=======================+=======================+
     |   40 a       40       |   44 a       44       |   0.52333      27.4   |
     |   40 a       40       |   55 a       55       |   0.40841      16.7   |
     |   40 a       40       |   50 a       50       |  -0.28777       8.3   |
     |   40 a       40       |   56 a       56       |  -0.25844       6.7   |
     |   40 a       40       |   48 a       48       |   0.24955       6.2   |
     |   39 a       39       |   47 a       47       |  -0.24657       6.1   |
     |   40 a       40       |   51 a       51       |   0.22573       5.1   |
     |   36 a       36       |   42 a       42       |   0.19921       4.0   |
     |   40 a       40       |   62 a       62       |  -0.15597       2.4   |
     |   40 a       40       |   43 a       43       |   0.13821       1.9   |
     |   40 a       40       |   54 a       54       |  -0.11598       1.3   |
     |   40 a       40       |   61 a       61       |  -0.09874       1.0   |
     |   40 a       40       |   46 a       46       |  -0.09740       0.9   |
     |   40 a       40       |   41 a       41       |  -0.09641       0.9   |
     |   40 a       40       |   63 a       63       |   0.07906       0.6   |
     |   40 a       40       |   70 a       70       |  -0.07858       0.6   |
     |   40 a       40       |   67 a       67       |   0.06992       0.5   |
     |   40 a       40       |   68 a       68       |   0.06834       0.5   |
     |   40 a       40       |   57 a       57       |  -0.06295       0.4   |
     |   40 a       40       |   47 a       47       |  -0.06272       0.4   |
     +=======================+=======================+=======================+
     norm of printed elements:  0.91929


       Energy:     0.2469192 H      6.71901 eV    54192.506 cm-1

     +=======================================================================+
     | type: RE0                    symmetry: a               state:   11    |
     +-----------------------+-----------------------+-----------------------+
     | occ. orb.  index spin | vir. orb.  index spin |  coeff/|amp|     %    |
     +=======================+=======================+=======================+
     |   37 a       37       |   47 a       47       |   0.93657      87.7   |
     |   37 a       37       |   48 a       48       |   0.17667       3.1   |
     |   37 a       37       |   53 a       53       |  -0.12387       1.5   |
     |   37 a       37       |   56 a       56       |   0.10858       1.2   |
     |   37 a       37       |   45 a       45       |  -0.08424       0.7   |
     |   37 a       37       |   46 a       46       |  -0.07910       0.6   |
     |   37 a       37       |   62 a       62       |  -0.07809       0.6   |
     +=======================+=======================+=======================+
     norm of printed elements:  0.95495


       Energy:     0.2555104 H      6.95279 eV    56078.061 cm-1

     +=======================================================================+
     | type: RE0                    symmetry: a               state:   12    |
     +-----------------------+-----------------------+-----------------------+
     | occ. orb.  index spin | vir. orb.  index spin |  coeff/|amp|     %    |
     +=======================+=======================+=======================+
     |   39 a       39       |   47 a       47       |   0.79499      63.2   |
     |   39 a       39       |   41 a       41       |  -0.28957       8.4   |
     |   39 a       39       |   48 a       48       |   0.21327       4.5   |
     |   40 a       40       |   55 a       55       |   0.15976       2.6   |
     |   40 a       40       |   50 a       50       |  -0.12905       1.7   |
     |   39 a       39       |   46 a       46       |  -0.10783       1.2   |
     |   38 a       38       |   47 a       47       |   0.10606       1.1   |
     |   39 a       39       |   45 a       45       |  -0.10531       1.1   |
     |   39 a       39       |   53 a       53       |  -0.10423       1.1   |
     |   39 a       39       |   56 a       56       |   0.10164       1.0   |
     |   36 a       36       |   42 a       42       |   0.09944       1.0   |
     |   40 a       40       |   42 a       42       |   0.09239       0.9   |
     |   39 a       39       |   43 a       43       |  -0.09112       0.8   |
     |   33 a       33       |   42 a       42       |   0.08250       0.7   |
     |   40 a       40       |   51 a       51       |   0.07783       0.6   |
     |   40 a       40       |   56 a       56       |  -0.07503       0.6   |
     |   40 a       40       |   47 a       47       |   0.07438       0.6   |
     |   40 a       40       |   46 a       46       |   0.06823       0.5   |
     |   39 a       39       |   59 a       59       |  -0.06189       0.4   |
     |   36 a       36       |   55 a       55       |   0.05426       0.3   |
     +=======================+=======================+=======================+
     norm of printed elements:  0.92087


       Energy:     0.2576602 H      7.01129 eV    56549.875 cm-1

     +=======================================================================+
     | type: RE0                    symmetry: a               state:   13    |
     +-----------------------+-----------------------+-----------------------+
     | occ. orb.  index spin | vir. orb.  index spin |  coeff/|amp|     %    |
     +=======================+=======================+=======================+
     |   39 a       39       |   41 a       41       |   0.78183      61.1   |
     |   39 a       39       |   47 a       47       |   0.34772      12.1   |
     |   40 a       40       |   46 a       46       |  -0.20466       4.2   |
     |   39 a       39       |   44 a       44       |  -0.16020       2.6   |
     |   39 a       39       |   43 a       43       |   0.13997       2.0   |
     |   39 a       39       |   48 a       48       |  -0.13374       1.8   |
     |   39 a       39       |   42 a       42       |   0.13354       1.8   |
     |   40 a       40       |   48 a       48       |   0.12572       1.6   |
     |   39 a       39       |   46 a       46       |   0.11212       1.3   |
     |   39 a       39       |   72 a       72       |   0.09555       0.9   |
     |   40 a       40       |   45 a       45       |  -0.08527       0.7   |
     |   39 a       39       |   68 a       68       |  -0.08368       0.7   |
     |   40 a       40       |   41 a       41       |   0.08191       0.7   |
     |   39 a       39       |   45 a       45       |   0.06854       0.5   |
     |   39 a       39       |   60 a       60       |  -0.06761       0.5   |
     |   40 a       40       |   54 a       54       |  -0.06716       0.5   |
     |   39 a       39       |   66 a       66       |  -0.06547       0.4   |
     |   40 a       40       |   43 a       43       |   0.06498       0.4   |
     |   40 a       40       |   60 a       60       |  -0.06172       0.4   |
     |   39 a       39       |   71 a       71       |  -0.05424       0.3   |
     +=======================+=======================+=======================+
     norm of printed elements:  0.94257


       Energy:     0.2601755 H      7.07974 eV    57101.925 cm-1

     +=======================================================================+
     | type: RE0                    symmetry: a               state:   14    |
     +-----------------------+-----------------------+-----------------------+
     | occ. orb.  index spin | vir. orb.  index spin |  coeff/|amp|     %    |
     +=======================+=======================+=======================+
     |   40 a       40       |   46 a       46       |   0.56479      31.9   |
     |   40 a       40       |   48 a       48       |  -0.41894      17.6   |
     |   40 a       40       |   44 a       44       |   0.29448       8.7   |
     |   39 a       39       |   41 a       41       |   0.24180       5.8   |
     |   40 a       40       |   43 a       43       |   0.22645       5.1   |
     |   40 a       40       |   41 a       41       |  -0.20523       4.2   |
     |   40 a       40       |   45 a       45       |   0.18781       3.5   |
     |   40 a       40       |   49 a       49       |  -0.17762       3.2   |
     |   40 a       40       |   60 a       60       |   0.16759       2.8   |
     |   39 a       39       |   43 a       43       |   0.16279       2.6   |
     |   40 a       40       |   47 a       47       |   0.14942       2.2   |
     |   40 a       40       |   54 a       54       |   0.14426       2.1   |
     |   40 a       40       |   69 a       69       |   0.12518       1.6   |
     |   40 a       40       |   74 a       74       |   0.11265       1.3   |
     |   40 a       40       |   71 a       71       |  -0.08088       0.7   |
     |   39 a       39       |   44 a       44       |  -0.08044       0.6   |
     |   40 a       40       |   80 a       80       |  -0.07787       0.6   |
     |   40 a       40       |   57 a       57       |  -0.06402       0.4   |
     |   36 a       36       |   46 a       46       |   0.06095       0.4   |
     +=======================+=======================+=======================+
     norm of printed elements:  0.95287


       Energy:     0.2629859 H      7.15621 eV    57718.731 cm-1

     +=======================================================================+
     | type: RE0                    symmetry: a               state:   15    |
     +-----------------------+-----------------------+-----------------------+
     | occ. orb.  index spin | vir. orb.  index spin |  coeff/|amp|     %    |
     +=======================+=======================+=======================+
     |   35 a       35       |   47 a       47       |   0.91275      83.3   |
     |   36 a       36       |   47 a       47       |   0.19908       4.0   |
     |   35 a       35       |   48 a       48       |   0.17183       3.0   |
     |   35 a       35       |   53 a       53       |  -0.12096       1.5   |
     |   35 a       35       |   56 a       56       |   0.11167       1.2   |
     |   35 a       35       |   45 a       45       |  -0.08194       0.7   |
     |   35 a       35       |   46 a       46       |  -0.07673       0.6   |
     |   35 a       35       |   62 a       62       |  -0.07603       0.6   |
     |   35 a       35       |   59 a       59       |  -0.06342       0.4   |
     +=======================+=======================+=======================+
     norm of printed elements:  0.95177



     Info: copy ADC(2) right eigenvectors into left eigenvector files.


                    ========   CC DENSITY MODULE   ========

                      current wave-function model: ADC(2)  

  calculating overlap between   15 left and right vector(s)
    density nr.      cpu/min        wall/min    L     R
   ------------------------------------------------------
         1             1.21            1.26    LE0    RE0 
         2             1.21            1.26    LE0    RE0 
         3             1.21            1.26    LE0    RE0 
         4             1.21            1.26    LE0    RE0 
         5             1.21            1.27    LE0    RE0 
         6             1.21            1.26    LE0    RE0 
         7             1.21            1.25    LE0    RE0 
         8             1.21            1.26    LE0    RE0 
         9             1.21            1.26    LE0    RE0 
        10             1.21            1.26    LE0    RE0 
        11             1.21            1.26    LE0    RE0 
        12             1.21            1.26    LE0    RE0 
        13             1.21            1.26    LE0    RE0 
        14             1.21            1.26    LE0    RE0 
        15             1.21            1.26    LE0    RE0 
   ------------------------------------------------------
     time in cc_1den       cpu: 18 min  7 s  wall: 18 min 53 s  ratio:  1.0



     +==========================================================+
     |   contributions of excitation levels to excited states   |
     |     wavefunctions as computed from the <L|R> overlap     |
     +----------------------------------------------------------+
     | sym | multi | state |    E / eV  | % singles | % doubles |
     +==========================================================+
     | a   |   1   |   1   |    3.75949 |   89.72   |   10.28   |
     | a   |   1   |   2   |    4.36376 |   88.18   |   11.82   |
     | a   |   1   |   3   |    4.43956 |   90.13   |    9.87   |
     | a   |   1   |   4   |    4.72086 |   89.63   |   10.37   |
     | a   |   1   |   5   |    5.50976 |   91.68   |    8.32   |
     | a   |   1   |   6   |    5.58228 |   88.83   |   11.17   |
     | a   |   1   |   7   |    6.04198 |   88.80   |   11.20   |
     | a   |   1   |   8   |    6.32214 |   91.17   |    8.83   |
     | a   |   1   |   9   |    6.36425 |   90.83   |    9.17   |
     | a   |   1   |  10   |    6.42789 |   90.46   |    9.54   |
     | a   |   1   |  11   |    6.71901 |   83.40   |   16.60   |
     | a   |   1   |  12   |    6.95279 |   91.16   |    8.84   |
     | a   |   1   |  13   |    7.01129 |   91.51   |    8.49   |
     | a   |   1   |  14   |    7.07974 |   91.03   |    8.97   |
     | a   |   1   |  15   |    7.15621 |   84.26   |   15.74   |
     +==========================================================+



      The semi-canonical algorithm will be used for densities


                    ========   CC DENSITY MODULE   ========

                      current wave-function model: ADC(2)  

  calculating    15 xi densities

   a semicanonical algorithm will be used

    density nr.      cpu/min        wall/min    L     R
   ------------------------------------------------------
         1             2.07            2.25    LE0    R0  
         2             2.08            2.26    LE0    R0  
         3             2.08            2.25    LE0    R0  
         4             2.06            2.24    LE0    R0  
         5             2.07            2.27    LE0    R0  
         6             2.09            2.26    LE0    R0  
         7             2.08            2.25    LE0    R0  
         8             2.10            2.28    LE0    R0  
         9             2.06            2.24    LE0    R0  
        10             2.06            2.24    LE0    R0  
        11             2.09            2.26    LE0    R0  
        12             2.08            2.25    LE0    R0  
        13             2.08            2.25    LE0    R0  
        14             2.10            2.28    LE0    R0  
        15             2.08            2.31    LE0    R0  
   ------------------------------------------------------
     time in cc_1den       cpu: 31 min 11 s  wall: 33 min 55 s  ratio:  0.9


 **************************************************************
 *                                                            *
 *<<<<<<<<<<<<  ONE-PHOTON ABSORPTION STRENGTHS  >>>>>>>>>>>>>*
 *                                                            *
 **************************************************************



  +=========================================================================+
  |  Transition                                             model: ADC(2)   |
  |    number, symmetry, multiplicity:    1 a    1                          |
  |    frequency :   0.1381587661 a.u.     3.75949 e.V.     30322.3 rcm     |
  +=========================================================================+

     +-----------+-----------------+-----------------+---------------------+
     | operator  |   left moment   |  right moment   | transition strength |
     +-----------+-----------------+-----------------+---------------------+
     | xdiplen   |      0.00638522 |      0.00638522 |       0.00004077    |
     | ydiplen   |      0.00116044 |      0.00116044 |       0.00000135    |
     | zdiplen   |     -0.00017256 |     -0.00017256 |       0.00000003    |
     | xdipvel   |      0.00088028 |     -0.00088028 |       0.00000077    |
     | ydipvel   |      0.00017854 |     -0.00017854 |       0.00000003    |
     | zdipvel   |      0.00001099 |     -0.00001099 |       0.00000000    |
     | xangmom   |      0.55552834 |     -0.55552834 |       0.30861173    |
     | yangmom   |      0.09732947 |     -0.09732947 |       0.00947303    |
     | zangmom   |      0.00207621 |     -0.00207621 |       0.00000431    |
     +-----------+-----------------+-----------------+---------------------+
 
       oscillator strength (length gauge)   :      0.00000388
       oscillator strength (velocity gauge) :      0.00000389
       oscillator strength (mixed gauge)    :      0.00000388
 
       rotator strength (length gauge)      :      0.00182988 a.u.
       Rotator strength (length gauge)      :      0.86268443 10^(-40)*erg*cm^3
       rotator strength (velocity gauge)    :      0.00183276 a.u.
       Rotator strength (velocity gauge)    :      0.86404119 10^(-40)*erg*cm^3
 


  +=========================================================================+
  |  Transition                                             model: ADC(2)   |
  |    number, symmetry, multiplicity:    2 a    1                          |
  |    frequency :   0.1603651022 a.u.     4.36376 e.V.     35196.1 rcm     |
  +=========================================================================+

     +-----------+-----------------+-----------------+---------------------+
     | operator  |   left moment   |  right moment   | transition strength |
     +-----------+-----------------+-----------------+---------------------+
     | xdiplen   |     -1.93635314 |     -1.93635314 |       3.74946348    |
     | ydiplen   |     -0.30683080 |     -0.30683080 |       0.09414514    |
     | zdiplen   |     -0.01630080 |     -0.01630080 |       0.00026572    |
     | xdipvel   |     -0.30716329 |      0.30716329 |       0.09434929    |
     | ydipvel   |     -0.04798470 |      0.04798470 |       0.00230253    |
     | zdipvel   |     -0.00438937 |      0.00438937 |       0.00001927    |
     | xangmom   |      0.00521838 |     -0.00521838 |       0.00002723    |
     | yangmom   |     -0.02794018 |      0.02794018 |       0.00078065    |
     | zangmom   |     -0.23700014 |      0.23700014 |       0.05616907    |
     +-----------+-----------------+-----------------+---------------------+
 
       oscillator strength (length gauge)   :      0.41094887
       oscillator strength (velocity gauge) :      0.40187915
       oscillator strength (mixed gauge)    :      0.40638089
 
       rotator strength (length gauge)      :      0.00116579 a.u.
       Rotator strength (length gauge)      :      0.54960222 10^(-40)*erg*cm^3
       rotator strength (velocity gauge)    :      0.00242599 a.u.
       Rotator strength (velocity gauge)    :      1.14371561 10^(-40)*erg*cm^3
 


  +=========================================================================+
  |  Transition                                             model: ADC(2)   |
  |    number, symmetry, multiplicity:    3 a    1                          |
  |    frequency :   0.1631507345 a.u.     4.43956 e.V.     35807.4 rcm     |
  +=========================================================================+

     +-----------+-----------------+-----------------+---------------------+
     | operator  |   left moment   |  right moment   | transition strength |
     +-----------+-----------------+-----------------+---------------------+
     | xdiplen   |      0.02256183 |      0.02256183 |       0.00050904    |
     | ydiplen   |      0.00318669 |      0.00318669 |       0.00001016    |
     | zdiplen   |      0.06709289 |      0.06709289 |       0.00450146    |
     | xdipvel   |      0.00364687 |     -0.00364687 |       0.00001330    |
     | ydipvel   |      0.00049518 |     -0.00049518 |       0.00000025    |
     | zdipvel   |      0.01540798 |     -0.01540798 |       0.00023741    |
     | xangmom   |      0.18626937 |     -0.18626937 |       0.03469628    |
     | yangmom   |     -1.12194297 |      1.12194297 |       1.25875602    |
     | zangmom   |     -0.00052480 |      0.00052480 |       0.00000028    |
     +-----------+-----------------+-----------------+---------------------+
 
       oscillator strength (length gauge)   :      0.00054608
       oscillator strength (velocity gauge) :      0.00102543
       oscillator strength (mixed gauge)    :      0.00074508
 
       rotator strength (length gauge)      :      0.00029604 a.u.
       Rotator strength (length gauge)      :      0.13956611 10^(-40)*erg*cm^3
       rotator strength (velocity gauge)    :      0.00035444 a.u.
       Rotator strength (velocity gauge)    :      0.16709898 10^(-40)*erg*cm^3
 


  +=========================================================================+
  |  Transition                                             model: ADC(2)   |
  |    number, symmetry, multiplicity:    4 a    1                          |
  |    frequency :   0.1734885487 a.u.     4.72086 e.V.     38076.3 rcm     |
  +=========================================================================+

     +-----------+-----------------+-----------------+---------------------+
     | operator  |   left moment   |  right moment   | transition strength |
     +-----------+-----------------+-----------------+---------------------+
     | xdiplen   |      0.12367415 |      0.12367415 |       0.01529530    |
     | ydiplen   |      0.28916556 |      0.28916556 |       0.08361672    |
     | zdiplen   |      0.00406082 |      0.00406082 |       0.00001649    |
     | xdipvel   |      0.02248238 |     -0.02248238 |       0.00050546    |
     | ydipvel   |      0.05215812 |     -0.05215812 |       0.00272047    |
     | zdipvel   |      0.00127069 |     -0.00127069 |       0.00000161    |
     | xangmom   |     -0.00812665 |      0.00812665 |       0.00006604    |
     | yangmom   |      0.00774638 |     -0.00774638 |       0.00006001    |
     | zangmom   |      0.77315814 |     -0.77315814 |       0.59777351    |
     +-----------+-----------------+-----------------+---------------------+
 
       oscillator strength (length gauge)   :      0.01144198
       oscillator strength (velocity gauge) :      0.01240251
       oscillator strength (mixed gauge)    :      0.01191199
 
       rotator strength (length gauge)      :      0.00218729 a.u.
       Rotator strength (length gauge)      :      1.03118540 10^(-40)*erg*cm^3
       rotator strength (velocity gauge)    :      0.00346932 a.u.
       Rotator strength (velocity gauge)    :      1.63558835 10^(-40)*erg*cm^3
 


  +=========================================================================+
  |  Transition                                             model: ADC(2)   |
  |    number, symmetry, multiplicity:    5 a    1                          |
  |    frequency :   0.2024800975 a.u.     5.50976 e.V.     44439.2 rcm     |
  +=========================================================================+

     +-----------+-----------------+-----------------+---------------------+
     | operator  |   left moment   |  right moment   | transition strength |
     +-----------+-----------------+-----------------+---------------------+
     | xdiplen   |      0.05805046 |      0.05805046 |       0.00336986    |
     | ydiplen   |     -0.09568359 |     -0.09568359 |       0.00915535    |
     | zdiplen   |     -0.17700211 |     -0.17700211 |       0.03132975    |
     | xdipvel   |      0.00867991 |     -0.00867991 |       0.00007534    |
     | ydipvel   |     -0.01129562 |      0.01129562 |       0.00012759    |
     | zdipvel   |     -0.05068677 |      0.05068677 |       0.00256915    |
     | xangmom   |     -0.01397404 |      0.01397404 |       0.00019527    |
     | yangmom   |     -0.52537769 |      0.52537769 |       0.27602172    |
     | zangmom   |      0.08175198 |     -0.08175198 |       0.00668339    |
     +-----------+-----------------+-----------------+---------------------+
 
       oscillator strength (length gauge)   :      0.00591984
       oscillator strength (velocity gauge) :      0.00912709
       oscillator strength (mixed gauge)    :      0.00703756
 
       rotator strength (length gauge)      :      0.01749428 a.u.
       Rotator strength (length gauge)      :      8.24756406 10^(-40)*erg*cm^3
       rotator strength (velocity gauge)    :      0.00412245 a.u.
       Rotator strength (velocity gauge)    :      1.94350238 10^(-40)*erg*cm^3
 


  +=========================================================================+
  |  Transition                                             model: ADC(2)   |
  |    number, symmetry, multiplicity:    6 a    1                          |
  |    frequency :   0.2051449733 a.u.     5.58228 e.V.     45024.1 rcm     |
  +=========================================================================+

     +-----------+-----------------+-----------------+---------------------+
     | operator  |   left moment   |  right moment   | transition strength |
     +-----------+-----------------+-----------------+---------------------+
     | xdiplen   |      0.18653613 |      0.18653613 |       0.03479573    |
     | ydiplen   |     -0.32770532 |     -0.32770532 |       0.10739078    |
     | zdiplen   |      0.04461290 |      0.04461290 |       0.00199031    |
     | xdipvel   |      0.03277586 |     -0.03277586 |       0.00107426    |
     | ydipvel   |     -0.03142082 |      0.03142082 |       0.00098727    |
     | zdipvel   |      0.01271103 |     -0.01271103 |       0.00016157    |
     | xangmom   |      0.01576200 |     -0.01576200 |       0.00024844    |
     | yangmom   |      0.12068608 |     -0.12068608 |       0.01456513    |
     | zangmom   |      0.63881243 |     -0.63881243 |       0.40808132    |
     +-----------+-----------------+-----------------+---------------------+
 
       oscillator strength (length gauge)   :      0.01971810
       oscillator strength (velocity gauge) :      0.00722447
       oscillator strength (mixed gauge)    :      0.01131848
 
       rotator strength (length gauge)      :     -0.00405501 a.u.
       Rotator strength (length gauge)      :     -1.91170727 10^(-40)*erg*cm^3
       rotator strength (velocity gauge)    :      0.01180756 a.u.
       Rotator strength (velocity gauge)    :      5.56659636 10^(-40)*erg*cm^3
 


  +=========================================================================+
  |  Transition                                             model: ADC(2)   |
  |    number, symmetry, multiplicity:    7 a    1                          |
  |    frequency :   0.2220387007 a.u.     6.04198 e.V.     48731.9 rcm     |
  +=========================================================================+

     +-----------+-----------------+-----------------+---------------------+
     | operator  |   left moment   |  right moment   | transition strength |
     +-----------+-----------------+-----------------+---------------------+
     | xdiplen   |     -0.36367403 |     -0.36367403 |       0.13225880    |
     | ydiplen   |      1.40232733 |      1.40232733 |       1.96652193    |
     | zdiplen   |     -0.00859726 |     -0.00859726 |       0.00007391    |
     | xdipvel   |     -0.07923229 |      0.07923229 |       0.00627776    |
     | ydipvel   |      0.29977945 |     -0.29977945 |       0.08986772    |
     | zdipvel   |     -0.00256975 |      0.00256975 |       0.00000660    |
     | xangmom   |     -0.00485267 |      0.00485267 |       0.00002355    |
     | yangmom   |     -0.02336077 |      0.02336077 |       0.00054573    |
     | zangmom   |      1.40860427 |     -1.40860427 |       1.98416600    |
     +-----------+-----------------+-----------------+---------------------+
 
       oscillator strength (length gauge)   :      0.31068464
       oscillator strength (velocity gauge) :      0.28869465
       oscillator strength (mixed gauge)    :      0.29948382
 
       rotator strength (length gauge)      :     -0.02155240 a.u.
       Rotator strength (length gauge)      :    -10.16073938 10^(-40)*erg*cm^3
       rotator strength (velocity gauge)    :     -0.02305532 a.u.
       Rotator strength (velocity gauge)    :    -10.86928027 10^(-40)*erg*cm^3
 


  +=========================================================================+
  |  Transition                                             model: ADC(2)   |
  |    number, symmetry, multiplicity:    8 a    1                          |
  |    frequency :   0.2323343135 a.u.     6.32214 e.V.     50991.5 rcm     |
  +=========================================================================+

     +-----------+-----------------+-----------------+---------------------+
     | operator  |   left moment   |  right moment   | transition strength |
     +-----------+-----------------+-----------------+---------------------+
     | xdiplen   |     -0.05469259 |     -0.05469259 |       0.00299128    |
     | ydiplen   |      0.18466719 |      0.18466719 |       0.03410197    |
     | zdiplen   |      0.11550272 |      0.11550272 |       0.01334088    |
     | xdipvel   |     -0.00580191 |      0.00580191 |       0.00003366    |
     | ydipvel   |      0.04133927 |     -0.04133927 |       0.00170894    |
     | zdipvel   |      0.02933990 |     -0.02933990 |       0.00086083    |
     | xangmom   |     -0.00984514 |      0.00984514 |       0.00009693    |
     | yangmom   |      0.11286482 |     -0.11286482 |       0.01273847    |
     | zangmom   |      0.05436549 |     -0.05436549 |       0.00295561    |
     +-----------+-----------------+-----------------+---------------------+
 
       oscillator strength (length gauge)   :      0.00781172
       oscillator strength (velocity gauge) :      0.00747035
       oscillator strength (mixed gauge)    :      0.00756011
 
       rotator strength (length gauge)      :      0.01383012 a.u.
       Rotator strength (length gauge)      :      6.52012296 10^(-40)*erg*cm^3
       rotator strength (velocity gauge)    :      0.01359667 a.u.
       Rotator strength (velocity gauge)    :      6.41006457 10^(-40)*erg*cm^3
 


  +=========================================================================+
  |  Transition                                             model: ADC(2)   |
  |    number, symmetry, multiplicity:    9 a    1                          |
  |    frequency :   0.2338820182 a.u.     6.36425 e.V.     51331.2 rcm     |
  +=========================================================================+

     +-----------+-----------------+-----------------+---------------------+
     | operator  |   left moment   |  right moment   | transition strength |
     +-----------+-----------------+-----------------+---------------------+
     | xdiplen   |     -0.04025206 |     -0.04025206 |       0.00162023    |
     | ydiplen   |      0.16934009 |      0.16934009 |       0.02867607    |
     | zdiplen   |     -0.15964475 |     -0.15964475 |       0.02548645    |
     | xdipvel   |      0.00142044 |     -0.00142044 |       0.00000202    |
     | ydipvel   |      0.04210539 |     -0.04210539 |       0.00177286    |
     | zdipvel   |     -0.03759861 |      0.03759861 |       0.00141366    |
     | xangmom   |      0.12211892 |     -0.12211892 |       0.01491303    |
     | yangmom   |     -0.28672899 |      0.28672899 |       0.08221352    |
     | zangmom   |      0.07539183 |     -0.07539183 |       0.00568393    |
     +-----------+-----------------+-----------------+---------------------+
 
       oscillator strength (length gauge)   :      0.00869772
       oscillator strength (velocity gauge) :      0.00908873
       oscillator strength (mixed gauge)    :      0.00871692
 
       rotator strength (length gauge)      :     -0.03275308 a.u.
       Rotator strength (length gauge)      :    -15.44122929 10^(-40)*erg*cm^3
       rotator strength (velocity gauge)    :     -0.03149879 a.u.
       Rotator strength (velocity gauge)    :    -14.84990274 10^(-40)*erg*cm^3
 


  +=========================================================================+
  |  Transition                                             model: ADC(2)   |
  |    number, symmetry, multiplicity:   10 a    1                          |
  |    frequency :   0.2362204841 a.u.     6.42789 e.V.     51844.4 rcm     |
  +=========================================================================+

     +-----------+-----------------+-----------------+---------------------+
     | operator  |   left moment   |  right moment   | transition strength |
     +-----------+-----------------+-----------------+---------------------+
     | xdiplen   |      0.11485861 |      0.11485861 |       0.01319250    |
     | ydiplen   |     -0.18357264 |     -0.18357264 |       0.03369892    |
     | zdiplen   |     -0.11916478 |     -0.11916478 |       0.01420025    |
     | xdipvel   |      0.00688215 |     -0.00688215 |       0.00004736    |
     | ydipvel   |     -0.04757789 |      0.04757789 |       0.00226366    |
     | zdipvel   |     -0.03061536 |      0.03061536 |       0.00093730    |
     | xangmom   |      0.08958274 |     -0.08958274 |       0.00802507    |
     | yangmom   |     -0.28278043 |      0.28278043 |       0.07996477    |
     | zangmom   |     -0.08038150 |      0.08038150 |       0.00646119    |
     +-----------+-----------------+-----------------+---------------------+
 
       oscillator strength (length gauge)   :      0.00962073
       oscillator strength (velocity gauge) :      0.00916748
       oscillator strength (mixed gauge)    :      0.00878183
 
       rotator strength (length gauge)      :      0.03588937 a.u.
       Rotator strength (length gauge)      :     16.91981299 10^(-40)*erg*cm^3
       rotator strength (velocity gauge)    :      0.03499173 a.u.
       Rotator strength (velocity gauge)    :     16.49662595 10^(-40)*erg*cm^3
 


  +=========================================================================+
  |  Transition                                             model: ADC(2)   |
  |    number, symmetry, multiplicity:   11 a    1                          |
  |    frequency :   0.2469192241 a.u.     6.71901 e.V.     54192.5 rcm     |
  +=========================================================================+

     +-----------+-----------------+-----------------+---------------------+
     | operator  |   left moment   |  right moment   | transition strength |
     +-----------+-----------------+-----------------+---------------------+
     | xdiplen   |     -0.00780645 |     -0.00780645 |       0.00006094    |
     | ydiplen   |      0.00276514 |      0.00276514 |       0.00000765    |
     | zdiplen   |      0.02660899 |      0.02660899 |       0.00070804    |
     | xdipvel   |     -0.00191642 |      0.00191642 |       0.00000367    |
     | ydipvel   |      0.00065610 |     -0.00065610 |       0.00000043    |
     | zdipvel   |      0.00980204 |     -0.00980204 |       0.00009608    |
     | xangmom   |     -0.01423486 |      0.01423486 |       0.00020263    |
     | yangmom   |     -0.07980280 |      0.07980280 |       0.00636849    |
     | zangmom   |     -0.00091315 |      0.00091315 |       0.00000083    |
     +-----------+-----------------+-----------------+---------------------+
 
       oscillator strength (length gauge)   :      0.00012784
       oscillator strength (velocity gauge) :      0.00027049
       oscillator strength (mixed gauge)    :      0.00018506
 
       rotator strength (length gauge)      :     -0.00006692 a.u.
       Rotator strength (length gauge)      :     -0.03154915 10^(-40)*erg*cm^3
       rotator strength (velocity gauge)    :     -0.00006891 a.u.
       Rotator strength (velocity gauge)    :     -0.03248640 10^(-40)*erg*cm^3
 


  +=========================================================================+
  |  Transition                                             model: ADC(2)   |
  |    number, symmetry, multiplicity:   12 a    1                          |
  |    frequency :   0.2555104455 a.u.     6.95279 e.V.     56078.1 rcm     |
  +=========================================================================+

     +-----------+-----------------+-----------------+---------------------+
     | operator  |   left moment   |  right moment   | transition strength |
     +-----------+-----------------+-----------------+---------------------+
     | xdiplen   |     -1.75877722 |     -1.75877722 |       3.09329732    |
     | ydiplen   |     -0.34309573 |     -0.34309573 |       0.11771468    |
     | zdiplen   |      0.02305868 |      0.02305868 |       0.00053170    |
     | xdipvel   |     -0.41130305 |      0.41130305 |       0.16917020    |
     | ydipvel   |     -0.07909688 |      0.07909688 |       0.00625632    |
     | zdipvel   |      0.00314709 |     -0.00314709 |       0.00000990    |
     | xangmom   |     -0.12607292 |      0.12607292 |       0.01589438    |
     | yangmom   |     -0.03415076 |      0.03415076 |       0.00116627    |
     | zangmom   |     -0.58858081 |      0.58858081 |       0.34642737    |
     +-----------+-----------------+-----------------+---------------------+
 
       oscillator strength (length gauge)   :      0.54705531
       oscillator strength (velocity gauge) :      0.45774102
       oscillator strength (mixed gauge)    :      0.50040053
 
       rotator strength (length gauge)      :      0.10993963 a.u.
       Rotator strength (length gauge)      :     51.83033112 10^(-40)*erg*cm^3
       rotator strength (velocity gauge)    :      0.10313292 a.u.
       Rotator strength (velocity gauge)    :     48.62135082 10^(-40)*erg*cm^3
 


  +=========================================================================+
  |  Transition                                             model: ADC(2)   |
  |    number, symmetry, multiplicity:   13 a    1                          |
  |    frequency :   0.2576601885 a.u.     7.01129 e.V.     56549.9 rcm     |
  +=========================================================================+

     +-----------+-----------------+-----------------+---------------------+
     | operator  |   left moment   |  right moment   | transition strength |
     +-----------+-----------------+-----------------+---------------------+
     | xdiplen   |     -0.58666362 |     -0.58666362 |       0.34417420    |
     | ydiplen   |     -0.08991910 |     -0.08991910 |       0.00808544    |
     | zdiplen   |     -0.10908459 |     -0.10908459 |       0.01189945    |
     | xdipvel   |     -0.13904242 |      0.13904242 |       0.01933279    |
     | ydipvel   |     -0.02068277 |      0.02068277 |       0.00042778    |
     | zdipvel   |     -0.02597678 |      0.02597678 |       0.00067479    |
     | xangmom   |      0.37391936 |     -0.37391936 |       0.13981569    |
     | yangmom   |     -0.06001829 |      0.06001829 |       0.00360220    |
     | zangmom   |     -0.21630023 |      0.21630023 |       0.04678579    |
     +-----------+-----------------+-----------------+---------------------+
 
       oscillator strength (length gauge)   :      0.06255287
       oscillator strength (velocity gauge) :      0.05287420
       oscillator strength (mixed gauge)    :      0.05750971
 
       rotator strength (length gauge)      :     -0.09518654 a.u.
       Rotator strength (length gauge)      :    -44.87507861 10^(-40)*erg*cm^3
       rotator strength (velocity gauge)    :     -0.08757760 a.u.
       Rotator strength (velocity gauge)    :    -41.28789583 10^(-40)*erg*cm^3
 


  +=========================================================================+
  |  Transition                                             model: ADC(2)   |
  |    number, symmetry, multiplicity:   14 a    1                          |
  |    frequency :   0.2601755143 a.u.     7.07974 e.V.     57101.9 rcm     |
  +=========================================================================+

     +-----------+-----------------+-----------------+---------------------+
     | operator  |   left moment   |  right moment   | transition strength |
     +-----------+-----------------+-----------------+---------------------+
     | xdiplen   |     -0.00477993 |     -0.00477993 |       0.00002285    |
     | ydiplen   |      0.01613686 |      0.01613686 |       0.00026040    |
     | zdiplen   |     -0.03151742 |     -0.03151742 |       0.00099335    |
     | xdipvel   |      0.00097286 |     -0.00097286 |       0.00000095    |
     | ydipvel   |      0.00395489 |     -0.00395489 |       0.00001564    |
     | zdipvel   |     -0.01443649 |      0.01443649 |       0.00020841    |
     | xangmom   |      0.22883637 |     -0.22883637 |       0.05236608    |
     | yangmom   |     -0.07048446 |      0.07048446 |       0.00496806    |
     | zangmom   |      0.00189488 |     -0.00189488 |       0.00000359    |
     +-----------+-----------------+-----------------+---------------------+
 
       oscillator strength (length gauge)   :      0.00022143
       oscillator strength (velocity gauge) :      0.00057653
       oscillator strength (mixed gauge)    :      0.00034278
 
       rotator strength (length gauge)      :     -0.00114547 a.u.
       Rotator strength (length gauge)      :     -0.54002497 10^(-40)*erg*cm^3
       rotator strength (velocity gauge)    :     -0.00016045 a.u.
       Rotator strength (velocity gauge)    :     -0.07564161 10^(-40)*erg*cm^3
 


  +=========================================================================+
  |  Transition                                             model: ADC(2)   |
  |    number, symmetry, multiplicity:   15 a    1                          |
  |    frequency :   0.2629858893 a.u.     7.15621 e.V.     57718.7 rcm     |
  +=========================================================================+

     +-----------+-----------------+-----------------+---------------------+
     | operator  |   left moment   |  right moment   | transition strength |
     +-----------+-----------------+-----------------+---------------------+
     | xdiplen   |      0.00634060 |      0.00634060 |       0.00004020    |
     | ydiplen   |     -0.00074868 |     -0.00074868 |       0.00000056    |
     | zdiplen   |     -0.00383043 |     -0.00383043 |       0.00001467    |
     | xdipvel   |      0.00152418 |     -0.00152418 |       0.00000232    |
     | ydipvel   |      0.00003270 |     -0.00003270 |       0.00000000    |
     | zdipvel   |     -0.00129490 |      0.00129490 |       0.00000168    |
     | xangmom   |      0.13611013 |     -0.13611013 |       0.01852597    |
     | yangmom   |      0.08891731 |     -0.08891731 |       0.00790629    |
     | zangmom   |      0.01155115 |     -0.01155115 |       0.00013343    |
     +-----------+-----------------+-----------------+---------------------+
 
       oscillator strength (length gauge)   :      0.00000972
       oscillator strength (velocity gauge) :      0.00001014
       oscillator strength (mixed gauge)    :      0.00000973
 
       rotator strength (length gauge)      :      0.00037610 a.u.
       Rotator strength (length gauge)      :      0.17731063 10^(-40)*erg*cm^3
       rotator strength (velocity gauge)    :      0.00037151 a.u.
       Rotator strength (velocity gauge)    :      0.17514807 10^(-40)*erg*cm^3
 
 Exporting transition densities


    ------------------------------------------------------------------------
         total  cpu-time :  7 hours 14 minutes and 59 seconds
         total wall-time :  8 hours 59 minutes and 32 seconds
    ------------------------------------------------------------------------


   ****  ricc2 : all done  ****


    2023-01-25 09:43:57.338 

