 Entering Gaussian System, Link 0=g09
 Initial command:
 /apps/software//g09/l1.exe /scratch/matheusmaximo/48666.cluster.abaxnet/Gau-10601.inp -scrdir=/scratch/matheusmaximo/48666.cluster.abaxnet/
 Entering Link 1 = /apps/software//g09/l1.exe PID=     10602.
  
 Copyright (c) 1988,1990,1992,1993,1995,1998,2003,2009, Gaussian, Inc.
                  All Rights Reserved.
  
 This is part of the Gaussian(R) 09 program.  It is based on
 the Gaussian(R) 03 system (copyright 2003, Gaussian, Inc.),
 the Gaussian(R) 98 system (copyright 1998, Gaussian, Inc.),
 the Gaussian(R) 94 system (copyright 1995, Gaussian, Inc.),
 the Gaussian 92(TM) system (copyright 1992, Gaussian, Inc.),
 the Gaussian 90(TM) system (copyright 1990, Gaussian, Inc.),
 the Gaussian 88(TM) system (copyright 1988, Gaussian, Inc.),
 the Gaussian 86(TM) system (copyright 1986, Carnegie Mellon
 University), and the Gaussian 82(TM) system (copyright 1983,
 Carnegie Mellon University). Gaussian is a federally registered
 trademark of Gaussian, Inc.
  
 This software contains proprietary and confidential information,
 including trade secrets, belonging to Gaussian, Inc.
  
 This software is provided under written license and may be
 used, copied, transmitted, or stored only in accord with that
 written license.
  
 The following legend is applicable only to US Government
 contracts under FAR:
  
                    RESTRICTED RIGHTS LEGEND
  
 Use, reproduction and disclosure by the US Government is
 subject to restrictions as set forth in subparagraphs (a)
 and (c) of the Commercial Computer Software - Restricted
 Rights clause in FAR 52.227-19.
  
 Gaussian, Inc.
 340 Quinnipiac St., Bldg. 40, Wallingford CT 06492
  
  
 ---------------------------------------------------------------
 Warning -- This program may not be used in any manner that
 competes with the business of Gaussian, Inc. or will provide
 assistance to any competitor of Gaussian, Inc.  The licensee
 of this program is prohibited from giving any competitor of
 Gaussian, Inc. access to this program.  By using this program,
 the user acknowledges that Gaussian, Inc. is engaged in the
 business of creating and licensing software in the field of
 computational chemistry and represents and warrants to the
 licensee that it is not a competitor of Gaussian, Inc. and that
 it will not use this program in any manner prohibited above.
 ---------------------------------------------------------------
  

 Cite this work as:
 Gaussian 09, Revision A.02,
 M. J. Frisch, G. W. Trucks, H. B. Schlegel, G. E. Scuseria, 
 M. A. Robb, J. R. Cheeseman, G. Scalmani, V. Barone, B. Mennucci, 
 G. A. Petersson, H. Nakatsuji, M. Caricato, X. Li, H. P. Hratchian, 
 A. F. Izmaylov, J. Bloino, G. Zheng, J. L. Sonnenberg, M. Hada, 
 M. Ehara, K. Toyota, R. Fukuda, J. Hasegawa, M. Ishida, T. Nakajima, 
 Y. Honda, O. Kitao, H. Nakai, T. Vreven, J. A. Montgomery, Jr., 
 J. E. Peralta, F. Ogliaro, M. Bearpark, J. J. Heyd, E. Brothers, 
 K. N. Kudin, V. N. Staroverov, R. Kobayashi, J. Normand, 
 K. Raghavachari, A. Rendell, J. C. Burant, S. S. Iyengar, J. Tomasi, 
 M. Cossi, N. Rega, J. M. Millam, M. Klene, J. E. Knox, J. B. Cross, 
 V. Bakken, C. Adamo, J. Jaramillo, R. Gomperts, R. E. Stratmann, 
 O. Yazyev, A. J. Austin, R. Cammi, C. Pomelli, J. W. Ochterski, 
 R. L. Martin, K. Morokuma, V. G. Zakrzewski, G. A. Voth, 
 P. Salvador, J. J. Dannenberg, S. Dapprich, A. D. Daniels, 
 O. Farkas, J. B. Foresman, J. V. Ortiz, J. Cioslowski, 
 and D. J. Fox, Gaussian, Inc., Wallingford CT, 2009.
 
 ******************************************
 Gaussian 09:  EM64L-G09RevA.02 11-Jun-2009
                 7-Jan-2023 
 ******************************************
 %chk=/home/matheusmaximo/Gaussian/subst/NO2/no2_s0.chk
 ---------------------------------------------------
 # opt=tight freq cam-b3lyp/gen scf=qc int=ultrafine
 ---------------------------------------------------
 1/7=10,14=-1,18=20,19=15,26=3,38=1/1,3;
 2/9=110,12=2,17=6,18=5,40=1/2;
 3/5=7,11=2,16=1,25=1,30=1,71=1,74=-40,75=-5/1,2,3;
 4//1;
 5/5=2,8=3,38=5/8;
 6/7=2,8=2,9=2,10=2,28=1/1;
 7//1,2,3,16;
 1/7=10,14=-1,18=20,19=15/3(2);
 2/9=110/2;
 99//99;
 2/9=110/2;
 3/5=7,6=1,11=2,16=1,25=1,30=1,71=1,74=-40,75=-5,82=7/1,2,3;
 4/5=5,16=3/1;
 5/5=2,8=3,38=5/8;
 7//1,2,3,16;
 1/7=10,14=-1,18=20,19=15/3(-5);
 2/9=110/2;
 6/7=2,8=2,9=2,10=2,19=2,28=1/1;
 99/9=1/99;
 ---------------------------
 NA+NO2 CAM-B3LYP def2-TZVPD
 ---------------------------
 Symbolic Z-matrix:
 Charge =  0 Multiplicity = 1
 C                    -0.08097   0.97008   0.00031 
 C                    -0.94112  -0.11596   0.00137 
 C                    -0.47364  -1.41314   0.02764 
 C                     0.89085  -1.62137   0.02626 
 C                     1.77896  -0.55365  -0.00189 
 C                     1.28116   0.76241   0.00867 
 H                    -0.49181   1.96898   0.00374 
 H                    -1.17094  -2.23564   0.03647 
 H                     1.28022  -2.63137   0.02803 
 N                    -2.37865   0.12646  -0.0106 
 O                    -3.11914  -0.83625   0.01635 
 O                    -2.76047   1.28046  -0.04307 
 N                     3.15013  -0.73548   0.00745 
 H                     3.46554  -1.67339  -0.17764 
 H                     3.67208  -0.03884  -0.50362 
 N                     2.25037   1.86689  -0.03202 
 O                     2.58829   2.28999  -1.10217 
 O                     2.66449   2.30078   1.00656 
 

 GradGradGradGradGradGradGradGradGradGradGradGradGradGradGradGradGradGrad
 Berny optimization.
 Initialization pass.
                           ----------------------------
                           !    Initial Parameters    !
                           ! (Angstroms and Degrees)  !
 --------------------------                            --------------------------
 ! Name  Definition              Value          Derivative Info.                !
 --------------------------------------------------------------------------------
 ! R1    R(1,2)                  1.3854         estimate D2E/DX2                !
 ! R2    R(1,6)                  1.3779         estimate D2E/DX2                !
 ! R3    R(1,7)                  1.0801         estimate D2E/DX2                !
 ! R4    R(2,3)                  1.3791         estimate D2E/DX2                !
 ! R5    R(2,10)                 1.4579         estimate D2E/DX2                !
 ! R6    R(3,4)                  1.3803         estimate D2E/DX2                !
 ! R7    R(3,8)                  1.0783         estimate D2E/DX2                !
 ! R8    R(4,5)                  1.3891         estimate D2E/DX2                !
 ! R9    R(4,9)                  1.0825         estimate D2E/DX2                !
 ! R10   R(5,6)                  1.4071         estimate D2E/DX2                !
 ! R11   R(5,13)                 1.3832         estimate D2E/DX2                !
 ! R12   R(6,16)                 1.47           estimate D2E/DX2                !
 ! R13   R(10,11)                1.2149         estimate D2E/DX2                !
 ! R14   R(10,12)                1.216          estimate D2E/DX2                !
 ! R15   R(13,14)                1.0067         estimate D2E/DX2                !
 ! R16   R(13,15)                1.0094         estimate D2E/DX2                !
 ! R17   R(16,17)                1.1993         estimate D2E/DX2                !
 ! R18   R(16,18)                1.1993         estimate D2E/DX2                !
 ! A1    A(2,1,6)              119.71           estimate D2E/DX2                !
 ! A2    A(2,1,7)              119.2632         estimate D2E/DX2                !
 ! A3    A(6,1,7)              121.0234         estimate D2E/DX2                !
 ! A4    A(1,2,3)              121.7969         estimate D2E/DX2                !
 ! A5    A(1,2,10)             118.8058         estimate D2E/DX2                !
 ! A6    A(3,2,10)             119.3937         estimate D2E/DX2                !
 ! A7    A(2,3,4)              118.4881         estimate D2E/DX2                !
 ! A8    A(2,3,8)              119.8943         estimate D2E/DX2                !
 ! A9    A(4,3,8)              121.6132         estimate D2E/DX2                !
 ! A10   A(3,4,5)              121.0705         estimate D2E/DX2                !
 ! A11   A(3,4,9)              119.759          estimate D2E/DX2                !
 ! A12   A(5,4,9)              119.1601         estimate D2E/DX2                !
 ! A13   A(4,5,6)              119.5102         estimate D2E/DX2                !
 ! A14   A(4,5,13)             122.1817         estimate D2E/DX2                !
 ! A15   A(6,5,13)             118.2682         estimate D2E/DX2                !
 ! A16   A(1,6,5)              119.3832         estimate D2E/DX2                !
 ! A17   A(1,6,16)             122.5731         estimate D2E/DX2                !
 ! A18   A(5,6,16)             117.987          estimate D2E/DX2                !
 ! A19   A(2,10,11)            117.9741         estimate D2E/DX2                !
 ! A20   A(2,10,12)            117.8821         estimate D2E/DX2                !
 ! A21   A(11,10,12)           124.1435         estimate D2E/DX2                !
 ! A22   A(5,13,14)            115.5833         estimate D2E/DX2                !
 ! A23   A(5,13,15)            114.736          estimate D2E/DX2                !
 ! A24   A(14,13,15)           112.8233         estimate D2E/DX2                !
 ! A25   A(6,16,17)            118.3934         estimate D2E/DX2                !
 ! A26   A(6,16,18)            118.3927         estimate D2E/DX2                !
 ! A27   A(17,16,18)           123.2139         estimate D2E/DX2                !
 ! D1    D(6,1,2,3)              0.8318         estimate D2E/DX2                !
 ! D2    D(6,1,2,10)          -179.8643         estimate D2E/DX2                !
 ! D3    D(7,1,2,3)           -178.5098         estimate D2E/DX2                !
 ! D4    D(7,1,2,10)             0.7941         estimate D2E/DX2                !
 ! D5    D(2,1,6,5)              0.9381         estimate D2E/DX2                !
 ! D6    D(2,1,6,16)           178.1442         estimate D2E/DX2                !
 ! D7    D(7,1,6,5)           -179.7322         estimate D2E/DX2                !
 ! D8    D(7,1,6,16)            -2.526          estimate D2E/DX2                !
 ! D9    D(1,2,3,4)             -1.2828         estimate D2E/DX2                !
 ! D10   D(1,2,3,8)            179.4611         estimate D2E/DX2                !
 ! D11   D(10,2,3,4)           179.4173         estimate D2E/DX2                !
 ! D12   D(10,2,3,8)             0.1612         estimate D2E/DX2                !
 ! D13   D(1,2,10,11)         -178.6194         estimate D2E/DX2                !
 ! D14   D(1,2,10,12)            1.1735         estimate D2E/DX2                !
 ! D15   D(3,2,10,11)            0.7016         estimate D2E/DX2                !
 ! D16   D(3,2,10,12)         -179.5055         estimate D2E/DX2                !
 ! D17   D(2,3,4,5)             -0.0482         estimate D2E/DX2                !
 ! D18   D(2,3,4,9)           -178.8677         estimate D2E/DX2                !
 ! D19   D(8,3,4,5)            179.1945         estimate D2E/DX2                !
 ! D20   D(8,3,4,9)              0.375          estimate D2E/DX2                !
 ! D21   D(3,4,5,6)              1.7845         estimate D2E/DX2                !
 ! D22   D(3,4,5,13)           179.4448         estimate D2E/DX2                !
 ! D23   D(9,4,5,6)           -179.3891         estimate D2E/DX2                !
 ! D24   D(9,4,5,13)            -1.7288         estimate D2E/DX2                !
 ! D25   D(4,5,6,1)             -2.2189         estimate D2E/DX2                !
 ! D26   D(4,5,6,16)          -179.5528         estimate D2E/DX2                !
 ! D27   D(13,5,6,1)          -179.9706         estimate D2E/DX2                !
 ! D28   D(13,5,6,16)            2.6955         estimate D2E/DX2                !
 ! D29   D(4,5,13,14)           13.5671         estimate D2E/DX2                !
 ! D30   D(4,5,13,15)          147.5202         estimate D2E/DX2                !
 ! D31   D(6,5,13,14)         -168.7448         estimate D2E/DX2                !
 ! D32   D(6,5,13,15)          -34.7917         estimate D2E/DX2                !
 ! D33   D(1,6,16,17)          -87.2114         estimate D2E/DX2                !
 ! D34   D(1,6,16,18)           92.7885         estimate D2E/DX2                !
 ! D35   D(5,6,16,17)           90.0318         estimate D2E/DX2                !
 ! D36   D(5,6,16,18)          -89.9683         estimate D2E/DX2                !
 --------------------------------------------------------------------------------
 Trust Radius=3.00D-01 FncErr=1.00D-07 GrdErr=1.00D-06
 Number of steps in this run=  91 maximum allowed number of steps= 108.
 GradGradGradGradGradGradGradGradGradGradGradGradGradGradGradGradGradGrad

                          Input orientation:                          
 ---------------------------------------------------------------------
 Center     Atomic      Atomic             Coordinates (Angstroms)
 Number     Number       Type             X           Y           Z
 ---------------------------------------------------------------------
      1          6           0       -0.080970    0.970080    0.000310
      2          6           0       -0.941120   -0.115960    0.001370
      3          6           0       -0.473640   -1.413140    0.027640
      4          6           0        0.890850   -1.621370    0.026260
      5          6           0        1.778960   -0.553650   -0.001890
      6          6           0        1.281160    0.762410    0.008670
      7          1           0       -0.491810    1.968980    0.003740
      8          1           0       -1.170940   -2.235640    0.036470
      9          1           0        1.280220   -2.631370    0.028030
     10          7           0       -2.378650    0.126460   -0.010600
     11          8           0       -3.119140   -0.836250    0.016350
     12          8           0       -2.760470    1.280460   -0.043070
     13          7           0        3.150130   -0.735480    0.007450
     14          1           0        3.465540   -1.673390   -0.177640
     15          1           0        3.672080   -0.038840   -0.503620
     16          7           0        2.250371    1.866889   -0.032021
     17          8           0        2.588285    2.289991   -1.102169
     18          8           0        2.664493    2.300785    1.006558
 ---------------------------------------------------------------------
                    Distance matrix (angstroms):
                    1          2          3          4          5
     1  C    0.000000
     2  C    1.385403   0.000000
     3  C    2.415507   1.379095   0.000000
     4  C    2.767801   2.371285   1.380288   0.000000
     5  C    2.404391   2.755071   2.411183   1.389085   0.000000
     6  C    1.377895   2.389585   2.795121   2.415587   1.407100
     7  H    1.080094   2.132806   3.382253   3.847450   3.394126
     8  H    3.386146   2.132391   1.078337   2.151374   3.395949
     9  H    3.850201   3.355942   2.135441   1.082457   2.136950
    10  N    2.447682   1.457876   2.449672   3.707546   4.212879
    11  O    3.534623   2.294082   2.707693   4.086139   4.906280
    12  O    2.697765   2.293905   3.534130   4.664500   4.896129
    13  N    3.653627   4.137894   3.686643   2.426829   1.383205
    14  H    4.426888   4.677209   3.953101   2.583275   2.032058
    15  H    3.918833   4.641398   4.399765   3.243519   2.025010
    16  N    2.498092   3.757449   4.264081   3.744282   2.466201
    17  O    3.175303   4.411700   4.936095   4.410599   3.154666
    18  O    3.212612   4.455503   4.959778   4.414759   3.154193
                    6          7          8          9         10
     6  C    0.000000
     7  H    2.144588   0.000000
     8  H    3.873225   4.259239   0.000000
     9  H    3.393835   4.929899   2.482913   0.000000
    10  N    3.714702   2.637281   2.653356   4.581970   0.000000
    11  O    4.681710   3.843480   2.398787   4.751522   1.214851
    12  O    4.075025   2.371301   3.859520   5.624468   1.215959
    13  N    2.395146   4.536281   4.574163   2.662966   5.595594
    14  H    3.277095   5.381485   4.675352   2.394922   6.117346
    15  H    2.573119   4.650455   5.345322   3.567192   6.073033
    16  N    1.470000   2.744313   5.342360   4.602080   4.945441
    17  O    2.296964   3.288323   5.992462   5.216146   5.526557
    18  O    2.296952   3.328361   6.019200   5.215350   5.585301
                   11         12         13         14         15
    11  O    0.000000
    12  O    2.147705   0.000000
    13  N    6.270086   6.245139   0.000000
    14  H    6.640516   6.892499   1.006686   0.000000
    15  H    6.857616   6.582580   1.009421   1.679487   0.000000
    16  N    6.011734   5.045052   2.753807   3.745854   2.423936
    17  O    6.602967   5.545270   3.271146   4.163258   2.637485
    18  O    6.653714   5.618986   3.233105   4.223514   2.961370
                   16         17         18
    16  N    0.000000
    17  O    1.199341   0.000000
    18  O    1.199337   2.110132   0.000000
 Stoichiometry    C6H5N3O4
 Framework group  C1[X(C6H5N3O4)]
 Deg. of freedom    48
 Full point group                 C1      NOp   1
 Largest Abelian subgroup         C1      NOp   1
 Largest concise Abelian subgroup C1      NOp   1
                         Standard orientation:                         
 ---------------------------------------------------------------------
 Center     Atomic      Atomic             Coordinates (Angstroms)
 Number     Number       Type             X           Y           Z
 ---------------------------------------------------------------------
      1          6           0        0.310101   -0.723223    0.022261
      2          6           0        1.414728    0.112750    0.005199
      3          6           0        1.287080    1.485882    0.015975
      4          6           0        0.018196    2.029137    0.017415
      5          6           0       -1.109112    1.217577    0.007258
      6          6           0       -0.956566   -0.180985    0.033438
      7          1           0        0.457805   -1.793063    0.037411
      8          1           0        2.168129    2.107605    0.010891
      9          1           0       -0.105904    3.104408    0.007227
     10          7           0        2.745667   -0.482054   -0.009431
     11          8           0        3.703763    0.264802    0.001543
     12          8           0        2.826184   -1.695203   -0.027976
     13          7           0       -2.390993    1.737076    0.019800
     14          1           0       -2.462911    2.721802   -0.176566
     15          1           0       -3.074462    1.187273   -0.479719
     16          7           0       -2.171685   -1.007972    0.011569
     17          8           0       -2.612612   -1.345748   -1.051403
     18          8           0       -2.673602   -1.311877    1.057575
 ---------------------------------------------------------------------
 Rotational constants (GHZ):      1.5518570      0.5321760      0.4199033
 General basis read from cards:  (5D, 7F)
 There are   538 symmetry adapted basis functions of A   symmetry.
 Integral buffers will be    131072 words long.
 Raffenetti 2 integral format.
 Two-electron integral symmetry is turned on.
   538 basis functions,   821 primitive gaussians,   616 cartesian basis functions
    47 alpha electrons       47 beta electrons
       nuclear repulsion energy       781.0112417316 Hartrees.
 NAtoms=   18 NActive=   18 NUniq=   18 SFac= 7.50D-01 NAtFMM=   80 NAOKFM=F Big=F
 One-electron integrals computed using PRISM.
 NBasis=   538 RedAO= T  NBF=   538
 NBsUse=   536 1.00D-06 NBFU=   536
 Harris functional with IExCor=20419 diagonalized for initial guess.
 ExpMin= 4.85D-02 ExpMax= 2.70D+04 ExpMxC= 9.22D+02 IAcc=3 IRadAn=         5 AccDes= 0.00D+00
 HarFok:  IExCor=20419 AccDes= 0.00D+00 IRadAn=         5 IDoV= 1
 ScaDFX=  1.000000  1.000000  1.000000  1.000000
 FoFCou: FMM=F IPFlag=           0 FMFlag=      100000 FMFlg1=           0
         NFxFlg=           0 DoJE=T BraDBF=F KetDBF=T FulRan=T
         Omega=  0.000000  0.000000  1.000000  0.000000  0.000000 ICntrl=     500 IOpCl=  0
         NMat0=    1 NMatS0=    1 NMatT0=    0 NMatD0=    1 NMtDS0=    0 NMtDT0=    0
         I1Cent=           4 NGrid=           0.
 Petite list used in FoFCou.
 Initial guess orbital symmetries:
       Occupied  (A) (A) (A) (A) (A) (A) (A) (A) (A) (A) (A) (A)
                 (A) (A) (A) (A) (A) (A) (A) (A) (A) (A) (A) (A)
                 (A) (A) (A) (A) (A) (A) (A) (A) (A) (A) (A) (A)
                 (A) (A) (A) (A) (A) (A) (A) (A) (A) (A) (A)
       Virtual   (A) (A) (A) (A) (A) (A) (A) (A) (A) (A) (A) (A)
                 (A) (A) (A) (A) (A) (A) (A) (A) (A) (A) (A) (A)
                 (A) (A) (A) (A) (A) (A) (A) (A) (A) (A) (A) (A)
                 (A) (A) (A) (A) (A) (A) (A) (A) (A) (A) (A) (A)
                 (A) (A) (A) (A) (A) (A) (A) (A) (A) (A) (A) (A)
                 (A) (A) (A) (A) (A) (A) (A) (A) (A) (A) (A) (A)
                 (A) (A) (A) (A) (A) (A) (A) (A) (A) (A) (A) (A)
                 (A) (A) (A) (A) (A) (A) (A) (A) (A) (A) (A) (A)
                 (A) (A) (A) (A) (A) (A) (A) (A) (A) (A) (A) (A)
                 (A) (A) (A) (A) (A) (A) (A) (A) (A) (A) (A) (A)
                 (A) (A) (A) (A) (A) (A) (A) (A) (A) (A) (A) (A)
                 (A) (A) (A) (A) (A) (A) (A) (A) (A) (A) (A) (A)
                 (A) (A) (A) (A) (A) (A) (A) (A) (A) (A) (A) (A)
                 (A) (A) (A) (A) (A) (A) (A) (A) (A) (A) (A) (A)
                 (A) (A) (A) (A) (A) (A) (A) (A) (A) (A) (A) (A)
                 (A) (A) (A) (A) (A) (A) (A) (A) (A) (A) (A) (A)
                 (A) (A) (A) (A) (A) (A) (A) (A) (A) (A) (A) (A)
                 (A) (A) (A) (A) (A) (A) (A) (A) (A) (A) (A) (A)
                 (A) (A) (A) (A) (A) (A) (A) (A) (A) (A) (A) (A)
                 (A) (A) (A) (A) (A) (A) (A) (A) (A) (A) (A) (A)
                 (A) (A) (A) (A) (A) (A) (A) (A) (A) (A) (A) (A)
                 (A) (A) (A) (A) (A) (A) (A) (A) (A) (A) (A) (A)
                 (A) (A) (A) (A) (A) (A) (A) (A) (A) (A) (A) (A)
                 (A) (A) (A) (A) (A) (A) (A) (A) (A) (A) (A) (A)
                 (A) (A) (A) (A) (A) (A) (A) (A) (A) (A) (A) (A)
                 (A) (A) (A) (A) (A) (A) (A) (A) (A) (A) (A) (A)
                 (A) (A) (A) (A) (A) (A) (A) (A) (A) (A) (A) (A)
                 (A) (A) (A) (A) (A) (A) (A) (A) (A) (A) (A) (A)
                 (A) (A) (A) (A) (A) (A) (A) (A) (A) (A) (A) (A)
                 (A) (A) (A) (A) (A) (A) (A) (A) (A) (A) (A) (A)
                 (A) (A) (A) (A) (A) (A) (A) (A) (A) (A) (A) (A)
                 (A) (A) (A) (A) (A) (A) (A) (A) (A) (A) (A) (A)
                 (A) (A) (A) (A) (A) (A) (A) (A) (A) (A) (A) (A)
                 (A) (A) (A) (A) (A) (A) (A) (A) (A) (A) (A) (A)
                 (A) (A) (A) (A) (A) (A) (A) (A) (A) (A) (A) (A)
                 (A) (A) (A) (A) (A) (A) (A) (A) (A) (A) (A) (A)
                 (A) (A) (A) (A) (A) (A) (A) (A) (A) (A) (A) (A)
                 (A) (A) (A) (A) (A) (A) (A) (A) (A) (A) (A) (A)
                 (A) (A) (A) (A) (A) (A) (A) (A) (A) (A) (A) (A)
                 (A) (A) (A) (A) (A) (A) (A) (A) (A) (A) (A) (A)
                 (A) (A) (A) (A) (A) (A) (A) (A) (A)
 The electronic state of the initial guess is 1-A.
 FoFJK:  IHMeth= 1 ICntrl=     0 DoSepK=T KAlg= 1 I1Cent= 0 FoldK=F
 Gradient too large for Newton-Raphson -- use scaled steepest descent instead.
 FoFJK:  IHMeth= 1 ICntrl=     0 DoSepK=T KAlg= 1 I1Cent= 0 FoldK=F
 FoFJK:  IHMeth= 1 ICntrl=     0 DoSepK=T KAlg= 1 I1Cent= 0 FoldK=F
 FoFJK:  IHMeth= 1 ICntrl=     0 DoSepK=T KAlg= 1 I1Cent= 0 FoldK=F
 FoFJK:  IHMeth= 1 ICntrl=     0 DoSepK=T KAlg= 1 I1Cent= 0 FoldK=F
 Gradient too large for Newton-Raphson -- use scaled steepest descent instead.
 FoFJK:  IHMeth= 1 ICntrl=     0 DoSepK=T KAlg= 1 I1Cent= 0 FoldK=F
 FoFJK:  IHMeth= 1 ICntrl=     0 DoSepK=T KAlg= 1 I1Cent= 0 FoldK=F
 FoFJK:  IHMeth= 1 ICntrl=     0 DoSepK=T KAlg= 1 I1Cent= 0 FoldK=F
 FoFJK:  IHMeth= 1 ICntrl=     0 DoSepK=T KAlg= 1 I1Cent= 0 FoldK=F
 Gradient too large for Newton-Raphson -- use scaled steepest descent instead.
 FoFJK:  IHMeth= 1 ICntrl=     0 DoSepK=T KAlg= 1 I1Cent= 0 FoldK=F
 FoFJK:  IHMeth= 1 ICntrl=     0 DoSepK=T KAlg= 1 I1Cent= 0 FoldK=F
 FoFJK:  IHMeth= 1 ICntrl=     0 DoSepK=T KAlg= 1 I1Cent= 0 FoldK=F
 Gradient too large for Newton-Raphson -- use scaled steepest descent instead.
 FoFJK:  IHMeth= 1 ICntrl=     0 DoSepK=T KAlg= 1 I1Cent= 0 FoldK=F
 FoFJK:  IHMeth= 1 ICntrl=     0 DoSepK=T KAlg= 1 I1Cent= 0 FoldK=F
 FoFJK:  IHMeth= 1 ICntrl=     0 DoSepK=T KAlg= 1 I1Cent= 0 FoldK=F
 FoFJK:  IHMeth= 1 ICntrl=     0 DoSepK=T KAlg= 1 I1Cent= 0 FoldK=F
 Gradient too large for Newton-Raphson -- use scaled steepest descent instead.
 FoFJK:  IHMeth= 1 ICntrl=     0 DoSepK=T KAlg= 1 I1Cent= 0 FoldK=F
 FoFJK:  IHMeth= 1 ICntrl=     0 DoSepK=T KAlg= 1 I1Cent= 0 FoldK=F
 FoFJK:  IHMeth= 1 ICntrl=     0 DoSepK=T KAlg= 1 I1Cent= 0 FoldK=F
 Gradient too large for Newton-Raphson -- use scaled steepest descent instead.
 FoFJK:  IHMeth= 1 ICntrl=     0 DoSepK=T KAlg= 1 I1Cent= 0 FoldK=F
 FoFJK:  IHMeth= 1 ICntrl=     0 DoSepK=T KAlg= 1 I1Cent= 0 FoldK=F
 FoFJK:  IHMeth= 1 ICntrl=     0 DoSepK=T KAlg= 1 I1Cent= 0 FoldK=F
 FoFJK:  IHMeth= 1 ICntrl=     0 DoSepK=T KAlg= 1 I1Cent= 0 FoldK=F
 Gradient too large for Newton-Raphson -- use scaled steepest descent instead.
 FoFJK:  IHMeth= 1 ICntrl=     0 DoSepK=T KAlg= 1 I1Cent= 0 FoldK=F
 FoFJK:  IHMeth= 1 ICntrl=     0 DoSepK=T KAlg= 1 I1Cent= 0 FoldK=F
 FoFJK:  IHMeth= 1 ICntrl=     0 DoSepK=T KAlg= 1 I1Cent= 0 FoldK=F
 LinEq1:  Iter=  0 NonCon=     1 RMS=3.40D-05 Max=2.49D-03
 AX will form     1 AO Fock derivatives at one time.
 FoFJK:  IHMeth= 1 ICntrl=     0 DoSepK=T KAlg= 1 I1Cent= 0 FoldK=F
 LinEq1:  Iter=  1 NonCon=     1 RMS=3.93D-05 Max=2.43D-03
 FoFJK:  IHMeth= 1 ICntrl=     0 DoSepK=T KAlg= 1 I1Cent= 0 FoldK=F
 LinEq1:  Iter=  2 NonCon=     1 RMS=5.83D-06 Max=3.21D-04
 FoFJK:  IHMeth= 1 ICntrl=     0 DoSepK=T KAlg= 1 I1Cent= 0 FoldK=F
 LinEq1:  Iter=  3 NonCon=     1 RMS=3.67D-06 Max=1.57D-04
 FoFJK:  IHMeth= 1 ICntrl=     0 DoSepK=T KAlg= 1 I1Cent= 0 FoldK=F
 LinEq1:  Iter=  4 NonCon=     1 RMS=1.31D-06 Max=7.31D-05
 FoFJK:  IHMeth= 1 ICntrl=     0 DoSepK=T KAlg= 1 I1Cent= 0 FoldK=F
 LinEq1:  Iter=  5 NonCon=     1 RMS=1.17D-06 Max=8.84D-05
 FoFJK:  IHMeth= 1 ICntrl=     0 DoSepK=T KAlg= 1 I1Cent= 0 FoldK=F
 LinEq1:  Iter=  6 NonCon=     1 RMS=3.85D-07 Max=1.84D-05
 FoFJK:  IHMeth= 1 ICntrl=     0 DoSepK=T KAlg= 1 I1Cent= 0 FoldK=F
 LinEq1:  Iter=  7 NonCon=     1 RMS=7.47D-08 Max=4.54D-06
 FoFJK:  IHMeth= 1 ICntrl=     0 DoSepK=T KAlg= 1 I1Cent= 0 FoldK=F
 LinEq1:  Iter=  8 NonCon=     1 RMS=5.28D-08 Max=3.27D-06
 FoFJK:  IHMeth= 1 ICntrl=     0 DoSepK=T KAlg= 1 I1Cent= 0 FoldK=F
 LinEq1:  Iter=  9 NonCon=     1 RMS=2.39D-08 Max=1.02D-06
 FoFJK:  IHMeth= 1 ICntrl=     0 DoSepK=T KAlg= 1 I1Cent= 0 FoldK=F
 LinEq1:  Iter= 10 NonCon=     1 RMS=1.64D-08 Max=8.69D-07
 FoFJK:  IHMeth= 1 ICntrl=     0 DoSepK=T KAlg= 1 I1Cent= 0 FoldK=F
 LinEq1:  Iter= 11 NonCon=     1 RMS=6.27D-09 Max=2.42D-07
 FoFJK:  IHMeth= 1 ICntrl=     0 DoSepK=T KAlg= 1 I1Cent= 0 FoldK=F
 LinEq1:  Iter= 12 NonCon=     0 RMS=3.68D-09 Max=1.63D-07
 Linear equations converged to 2.144D-08 2.144D-07 after    12 iterations.
 FoFJK:  IHMeth= 1 ICntrl=     0 DoSepK=T KAlg= 1 I1Cent= 0 FoldK=F
 FoFJK:  IHMeth= 1 ICntrl=     0 DoSepK=T KAlg= 1 I1Cent= 0 FoldK=F
 FoFJK:  IHMeth= 1 ICntrl=     0 DoSepK=T KAlg= 1 I1Cent= 0 FoldK=F
 LinEq1:  Iter=  0 NonCon=     1 RMS=1.10D-07 Max=7.51D-06
 FoFJK:  IHMeth= 1 ICntrl=     0 DoSepK=T KAlg= 1 I1Cent= 0 FoldK=F
 LinEq1:  Iter=  1 NonCon=     1 RMS=4.66D-08 Max=1.95D-06
 FoFJK:  IHMeth= 1 ICntrl=     0 DoSepK=T KAlg= 1 I1Cent= 0 FoldK=F
 LinEq1:  Iter=  2 NonCon=     1 RMS=3.46D-08 Max=2.92D-06
 FoFJK:  IHMeth= 1 ICntrl=     0 DoSepK=T KAlg= 1 I1Cent= 0 FoldK=F
 LinEq1:  Iter=  3 NonCon=     1 RMS=1.85D-08 Max=1.06D-06
 FoFJK:  IHMeth= 1 ICntrl=     0 DoSepK=T KAlg= 1 I1Cent= 0 FoldK=F
 LinEq1:  Iter=  4 NonCon=     1 RMS=1.38D-08 Max=7.75D-07
 FoFJK:  IHMeth= 1 ICntrl=     0 DoSepK=T KAlg= 1 I1Cent= 0 FoldK=F
 LinEq1:  Iter=  5 NonCon=     1 RMS=7.20D-09 Max=3.02D-07
 FoFJK:  IHMeth= 1 ICntrl=     0 DoSepK=T KAlg= 1 I1Cent= 0 FoldK=F
 LinEq1:  Iter=  6 NonCon=     1 RMS=3.79D-09 Max=1.42D-07
 FoFJK:  IHMeth= 1 ICntrl=     0 DoSepK=T KAlg= 1 I1Cent= 0 FoldK=F
 LinEq1:  Iter=  7 NonCon=     1 RMS=1.44D-09 Max=7.52D-08
 FoFJK:  IHMeth= 1 ICntrl=     0 DoSepK=T KAlg= 1 I1Cent= 0 FoldK=F
 LinEq1:  Iter=  8 NonCon=     1 RMS=1.25D-09 Max=5.92D-08
 FoFJK:  IHMeth= 1 ICntrl=     0 DoSepK=T KAlg= 1 I1Cent= 0 FoldK=F
 LinEq1:  Iter=  9 NonCon=     1 RMS=7.93D-10 Max=3.51D-08
 FoFJK:  IHMeth= 1 ICntrl=     0 DoSepK=T KAlg= 1 I1Cent= 0 FoldK=F
 LinEq1:  Iter= 10 NonCon=     1 RMS=6.78D-10 Max=2.90D-08
 FoFJK:  IHMeth= 1 ICntrl=     0 DoSepK=T KAlg= 1 I1Cent= 0 FoldK=F
 LinEq1:  Iter= 11 NonCon=     1 RMS=3.16D-10 Max=9.77D-09
 FoFJK:  IHMeth= 1 ICntrl=     0 DoSepK=T KAlg= 1 I1Cent= 0 FoldK=F
 LinEq1:  Iter= 12 NonCon=     1 RMS=2.03D-10 Max=6.21D-09
 FoFJK:  IHMeth= 1 ICntrl=     0 DoSepK=T KAlg= 1 I1Cent= 0 FoldK=F
 LinEq1:  Iter= 13 NonCon=     1 RMS=9.50D-11 Max=4.95D-09
 FoFJK:  IHMeth= 1 ICntrl=     0 DoSepK=T KAlg= 1 I1Cent= 0 FoldK=F
 LinEq1:  Iter= 14 NonCon=     0 RMS=4.88D-11 Max=1.49D-09
 Linear equations converged to 1.883D-10 1.883D-09 after    14 iterations.
 FoFJK:  IHMeth= 1 ICntrl=     0 DoSepK=T KAlg= 1 I1Cent= 0 FoldK=F
 SCF Done:  E(RCAM-B3LYP) =  -696.599379775     a.u. after   10 cycles
            Convg  =    0.2341D-08                    56 Fock formations.
              S**2 =  0.0000                  -V/T =  2.0037

 **********************************************************************

            Population analysis using the SCF density.

 **********************************************************************

 Orbital symmetries:
       Occupied  (A) (A) (A) (A) (A) (A) (A) (A) (A) (A) (A) (A)
                 (A) (A) (A) (A) (A) (A) (A) (A) (A) (A) (A) (A)
                 (A) (A) (A) (A) (A) (A) (A) (A) (A) (A) (A) (A)
                 (A) (A) (A) (A) (A) (A) (A) (A) (A) (A) (A)
       Virtual   (A) (A) (A) (A) (A) (A) (A) (A) (A) (A) (A) (A)
                 (A) (A) (A) (A) (A) (A) (A) (A) (A) (A) (A) (A)
                 (A) (A) (A) (A) (A) (A) (A) (A) (A) (A) (A) (A)
                 (A) (A) (A) (A) (A) (A) (A) (A) (A) (A) (A) (A)
                 (A) (A) (A) (A) (A) (A) (A) (A) (A) (A) (A) (A)
                 (A) (A) (A) (A) (A) (A) (A) (A) (A) (A) (A) (A)
                 (A) (A) (A) (A) (A) (A) (A) (A) (A) (A) (A) (A)
                 (A) (A) (A) (A) (A) (A) (A) (A) (A) (A) (A) (A)
                 (A) (A) (A) (A) (A) (A) (A) (A) (A) (A) (A) (A)
                 (A) (A) (A) (A) (A) (A) (A) (A) (A) (A) (A) (A)
                 (A) (A) (A) (A) (A) (A) (A) (A) (A) (A) (A) (A)
                 (A) (A) (A) (A) (A) (A) (A) (A) (A) (A) (A) (A)
                 (A) (A) (A) (A) (A) (A) (A) (A) (A) (A) (A) (A)
                 (A) (A) (A) (A) (A) (A) (A) (A) (A) (A) (A) (A)
                 (A) (A) (A) (A) (A) (A) (A) (A) (A) (A) (A) (A)
                 (A) (A) (A) (A) (A) (A) (A) (A) (A) (A) (A) (A)
                 (A) (A) (A) (A) (A) (A) (A) (A) (A) (A) (A) (A)
                 (A) (A) (A) (A) (A) (A) (A) (A) (A) (A) (A) (A)
                 (A) (A) (A) (A) (A) (A) (A) (A) (A) (A) (A) (A)
                 (A) (A) (A) (A) (A) (A) (A) (A) (A) (A) (A) (A)
                 (A) (A) (A) (A) (A) (A) (A) (A) (A) (A) (A) (A)
                 (A) (A) (A) (A) (A) (A) (A) (A) (A) (A) (A) (A)
                 (A) (A) (A) (A) (A) (A) (A) (A) (A) (A) (A) (A)
                 (A) (A) (A) (A) (A) (A) (A) (A) (A) (A) (A) (A)
                 (A) (A) (A) (A) (A) (A) (A) (A) (A) (A) (A) (A)
                 (A) (A) (A) (A) (A) (A) (A) (A) (A) (A) (A) (A)
                 (A) (A) (A) (A) (A) (A) (A) (A) (A) (A) (A) (A)
                 (A) (A) (A) (A) (A) (A) (A) (A) (A) (A) (A) (A)
                 (A) (A) (A) (A) (A) (A) (A) (A) (A) (A) (A) (A)
                 (A) (A) (A) (A) (A) (A) (A) (A) (A) (A) (A) (A)
                 (A) (A) (A) (A) (A) (A) (A) (A) (A) (A) (A) (A)
                 (A) (A) (A) (A) (A) (A) (A) (A) (A) (A) (A) (A)
                 (A) (A) (A) (A) (A) (A) (A) (A) (A) (A) (A) (A)
                 (A) (A) (A) (A) (A) (A) (A) (A) (A) (A) (A) (A)
                 (A) (A) (A) (A) (A) (A) (A) (A) (A) (A) (A) (A)
                 (A) (A) (A) (A) (A) (A) (A) (A) (A) (A) (A) (A)
                 (A) (A) (A) (A) (A) (A) (A) (A) (A) (A) (A) (A)
                 (A) (A) (A) (A) (A) (A) (A) (A) (A) (A) (A) (A)
                 (A) (A) (A) (A) (A) (A) (A) (A) (A) (A) (A) (A)
                 (A) (A) (A) (A) (A) (A) (A) (A) (A) (A) (A) (A)
                 (A) (A) (A) (A) (A) (A) (A) (A) (A)
 The electronic state is 1-A.
 Alpha  occ. eigenvalues --  -19.26482 -19.26419 -19.24548 -19.24487 -14.66434
 Alpha  occ. eigenvalues --  -14.64791 -14.44274 -10.35438 -10.34197 -10.32929
 Alpha  occ. eigenvalues --  -10.31273 -10.30356 -10.29470  -1.36989  -1.33782
 Alpha  occ. eigenvalues --   -1.18260  -1.15730  -1.06584  -1.00004  -0.93602
 Alpha  occ. eigenvalues --   -0.89876  -0.82577  -0.79612  -0.74226  -0.68836
 Alpha  occ. eigenvalues --   -0.66823  -0.66616  -0.63909  -0.63469  -0.62946
 Alpha  occ. eigenvalues --   -0.62107  -0.61642  -0.59908  -0.55829  -0.55317
 Alpha  occ. eigenvalues --   -0.52579  -0.51311  -0.48359  -0.43774  -0.41428
 Alpha  occ. eigenvalues --   -0.41264  -0.41040  -0.39819  -0.39432  -0.38070
 Alpha  occ. eigenvalues --   -0.36028  -0.32036
 Alpha virt. eigenvalues --   -0.06097  -0.04767  -0.01929   0.01043   0.02731
 Alpha virt. eigenvalues --    0.03374   0.03670   0.05525   0.06313   0.06596
 Alpha virt. eigenvalues --    0.07048   0.09123   0.09333   0.09637   0.10269
 Alpha virt. eigenvalues --    0.10676   0.11896   0.12309   0.12649   0.13182
 Alpha virt. eigenvalues --    0.13913   0.14017   0.14590   0.14849   0.16627
 Alpha virt. eigenvalues --    0.17208   0.17584   0.18430   0.18480   0.19668
 Alpha virt. eigenvalues --    0.19896   0.20373   0.20916   0.21610   0.22668
 Alpha virt. eigenvalues --    0.22858   0.23393   0.23728   0.24194   0.25062
 Alpha virt. eigenvalues --    0.25548   0.26001   0.26196   0.26740   0.27145
 Alpha virt. eigenvalues --    0.28675   0.28868   0.29150   0.29331   0.29983
 Alpha virt. eigenvalues --    0.30187   0.30667   0.31410   0.32108   0.32270
 Alpha virt. eigenvalues --    0.32895   0.33384   0.33827   0.35048   0.35346
 Alpha virt. eigenvalues --    0.35736   0.36339   0.37185   0.37490   0.37898
 Alpha virt. eigenvalues --    0.38250   0.38614   0.38927   0.40094   0.40521
 Alpha virt. eigenvalues --    0.41004   0.41580   0.42392   0.43181   0.43614
 Alpha virt. eigenvalues --    0.44044   0.44677   0.45147   0.45484   0.45610
 Alpha virt. eigenvalues --    0.45929   0.46437   0.46875   0.47660   0.48087
 Alpha virt. eigenvalues --    0.48312   0.48571   0.49996   0.50342   0.50859
 Alpha virt. eigenvalues --    0.51690   0.52544   0.53452   0.53523   0.54736
 Alpha virt. eigenvalues --    0.55076   0.55479   0.55632   0.56125   0.56580
 Alpha virt. eigenvalues --    0.57100   0.57538   0.58343   0.59049   0.60043
 Alpha virt. eigenvalues --    0.60419   0.61268   0.61534   0.62159   0.63011
 Alpha virt. eigenvalues --    0.63427   0.63896   0.64606   0.65181   0.65657
 Alpha virt. eigenvalues --    0.65802   0.66757   0.66886   0.67712   0.68188
 Alpha virt. eigenvalues --    0.68535   0.69246   0.69732   0.70698   0.71463
 Alpha virt. eigenvalues --    0.71942   0.72232   0.72673   0.73347   0.73736
 Alpha virt. eigenvalues --    0.74306   0.74828   0.75175   0.76170   0.76576
 Alpha virt. eigenvalues --    0.77407   0.78164   0.78719   0.79246   0.79284
 Alpha virt. eigenvalues --    0.79985   0.80392   0.81090   0.82110   0.83142
 Alpha virt. eigenvalues --    0.83654   0.84385   0.84786   0.85356   0.87070
 Alpha virt. eigenvalues --    0.87946   0.87989   0.88920   0.89783   0.90541
 Alpha virt. eigenvalues --    0.92495   0.93409   0.94378   0.95006   0.96023
 Alpha virt. eigenvalues --    0.97979   0.98558   0.99004   1.00154   1.00424
 Alpha virt. eigenvalues --    1.01286   1.02170   1.03177   1.04134   1.04648
 Alpha virt. eigenvalues --    1.05013   1.06422   1.07591   1.08563   1.10082
 Alpha virt. eigenvalues --    1.11019   1.12253   1.12776   1.13316   1.13948
 Alpha virt. eigenvalues --    1.15328   1.17117   1.18630   1.19508   1.20517
 Alpha virt. eigenvalues --    1.21639   1.22658   1.25151   1.27556   1.27825
 Alpha virt. eigenvalues --    1.28893   1.30399   1.33346   1.34235   1.34908
 Alpha virt. eigenvalues --    1.35770   1.38488   1.40451   1.41078   1.42352
 Alpha virt. eigenvalues --    1.43631   1.45640   1.46741   1.47694   1.48543
 Alpha virt. eigenvalues --    1.50251   1.51998   1.53386   1.53993   1.55942
 Alpha virt. eigenvalues --    1.56624   1.60060   1.60815   1.63344   1.64739
 Alpha virt. eigenvalues --    1.66149   1.66760   1.69178   1.70448   1.72836
 Alpha virt. eigenvalues --    1.74723   1.75151   1.75717   1.76215   1.78912
 Alpha virt. eigenvalues --    1.80343   1.80959   1.81990   1.83157   1.84661
 Alpha virt. eigenvalues --    1.85917   1.86389   1.88595   1.89376   1.90433
 Alpha virt. eigenvalues --    1.91228   1.92323   1.93092   1.94961   1.96028
 Alpha virt. eigenvalues --    1.96840   1.99101   1.99892   2.01105   2.04144
 Alpha virt. eigenvalues --    2.04838   2.05083   2.05889   2.10362   2.10745
 Alpha virt. eigenvalues --    2.14032   2.18040   2.18329   2.23395   2.24850
 Alpha virt. eigenvalues --    2.27747   2.28945   2.30851   2.31563   2.32327
 Alpha virt. eigenvalues --    2.33619   2.35064   2.36784   2.36817   2.38867
 Alpha virt. eigenvalues --    2.40393   2.41639   2.42611   2.43871   2.44877
 Alpha virt. eigenvalues --    2.46677   2.48711   2.51402   2.53193   2.54172
 Alpha virt. eigenvalues --    2.58600   2.60284   2.63520   2.65582   2.67108
 Alpha virt. eigenvalues --    2.69064   2.69603   2.70769   2.71569   2.72985
 Alpha virt. eigenvalues --    2.77339   2.78832   2.82499   2.84318   2.84590
 Alpha virt. eigenvalues --    2.85548   2.85778   2.87055   2.87671   2.88536
 Alpha virt. eigenvalues --    2.90979   2.91835   2.94172   2.94328   2.97673
 Alpha virt. eigenvalues --    2.99255   3.00707   3.02110   3.02380   3.05822
 Alpha virt. eigenvalues --    3.06558   3.08985   3.09732   3.10596   3.10910
 Alpha virt. eigenvalues --    3.12547   3.14177   3.17108   3.18188   3.19411
 Alpha virt. eigenvalues --    3.20568   3.21736   3.23704   3.28872   3.29368
 Alpha virt. eigenvalues --    3.30369   3.30852   3.32226   3.33896   3.36449
 Alpha virt. eigenvalues --    3.37892   3.39505   3.40797   3.41515   3.42226
 Alpha virt. eigenvalues --    3.44297   3.44950   3.46224   3.47802   3.48297
 Alpha virt. eigenvalues --    3.49150   3.50530   3.53110   3.54635   3.54770
 Alpha virt. eigenvalues --    3.55822   3.56860   3.58665   3.59302   3.61710
 Alpha virt. eigenvalues --    3.62332   3.65684   3.66450   3.69025   3.72410
 Alpha virt. eigenvalues --    3.73927   3.74977   3.76794   3.78793   3.83494
 Alpha virt. eigenvalues --    3.87669   3.91369   3.91889   3.93546   3.97627
 Alpha virt. eigenvalues --    3.98944   4.01812   4.04414   4.06518   4.11709
 Alpha virt. eigenvalues --    4.12607   4.13967   4.16822   4.18278   4.19077
 Alpha virt. eigenvalues --    4.22537   4.23725   4.26319   4.27640   4.30598
 Alpha virt. eigenvalues --    4.30895   4.33379   4.35010   4.35710   4.38653
 Alpha virt. eigenvalues --    4.42506   4.48256   4.49479   4.52995   4.58580
 Alpha virt. eigenvalues --    4.62170   4.64513   4.66221   4.68345   4.71602
 Alpha virt. eigenvalues --    4.74780   4.75729   4.76258   4.77493   4.80637
 Alpha virt. eigenvalues --    4.84379   4.84704   4.85304   4.86310   4.91672
 Alpha virt. eigenvalues --    4.91941   4.93263   4.95313   4.97643   4.99754
 Alpha virt. eigenvalues --    5.00281   5.06105   5.13592   5.16198   5.18029
 Alpha virt. eigenvalues --    5.18429   5.19360   5.19575   5.20828   5.22139
 Alpha virt. eigenvalues --    5.22702   5.23864   5.24118   5.27166   5.30007
 Alpha virt. eigenvalues --    5.34849   5.38060   5.38280   5.39307   5.40162
 Alpha virt. eigenvalues --    5.40847   5.43620   5.48049   5.52086   5.53335
 Alpha virt. eigenvalues --    5.56652   5.59585   5.68403   5.69018   5.71221
 Alpha virt. eigenvalues --    5.73500   5.73765   5.75957   5.82376   5.83629
 Alpha virt. eigenvalues --    5.93480   6.00109   6.10668   6.13040   6.14661
 Alpha virt. eigenvalues --    6.21780   6.43829   6.44099   6.44782   6.49708
 Alpha virt. eigenvalues --    6.52025   6.55055   6.58454   6.59056   6.60272
 Alpha virt. eigenvalues --    6.60717   6.61598   6.63262   6.86003   6.93944
 Alpha virt. eigenvalues --    6.94863   6.97723   6.98471   6.99110   7.11283
 Alpha virt. eigenvalues --    7.12572   7.31611   7.34245   7.40725   7.45466
 Alpha virt. eigenvalues --    7.49094   7.56427   7.61547   7.73600   7.78912
 Alpha virt. eigenvalues --    7.82120  22.73070  22.95138  22.98117  23.06887
 Alpha virt. eigenvalues --   23.22712  23.52983  32.47167  32.86868  32.98824
 Alpha virt. eigenvalues --   44.44082  44.46818  44.63303  44.69182
          Condensed to atoms (all electrons):
              1          2          3          4          5          6
     1  C    7.797780   0.092406  -0.410906   0.155841  -0.577835  -0.813275
     2  C    0.092406   6.246903   0.175242  -0.124581  -0.024829  -0.345395
     3  C   -0.410906   0.175242   6.619456   0.015608  -0.074848   0.020087
     4  C    0.155841  -0.124581   0.015608   6.917044  -0.549093  -0.313926
     5  C   -0.577835  -0.024829  -0.074848  -0.549093   7.208824  -0.147570
     6  C   -0.813275  -0.345395   0.020087  -0.313926  -0.147570   7.415864
     7  H    0.295646  -0.113214   0.004723   0.001579  -0.000990  -0.072302
     8  H    0.000643  -0.086239   0.321722  -0.061169  -0.000527  -0.000582
     9  H   -0.003354   0.017246  -0.079609   0.495850  -0.260158   0.012973
    10  N   -0.210300   0.592046  -0.272586  -0.004586   0.000293  -0.019831
    11  O    0.040078  -0.111855   0.028126   0.013202  -0.007856  -0.009433
    12  O   -0.026743  -0.096190   0.034156  -0.006961  -0.000488   0.043819
    13  N    0.014677   0.004598   0.001582  -0.093205   0.039700   0.071270
    14  H   -0.011714   0.001620  -0.012785  -0.001940  -0.027020  -0.038291
    15  H   -0.000107  -0.000160  -0.002325  -0.006564   0.019069  -0.044568
    16  N   -0.257180  -0.005339   0.004892  -0.001418  -0.031515   0.330531
    17  O    0.058782  -0.010218  -0.004024  -0.001843   0.019748  -0.132396
    18  O    0.030255  -0.005200  -0.000860   0.002822  -0.024789  -0.054021
              7          8          9         10         11         12
     1  C    0.295646   0.000643  -0.003354  -0.210300   0.040078  -0.026743
     2  C   -0.113214  -0.086239   0.017246   0.592046  -0.111855  -0.096190
     3  C    0.004723   0.321722  -0.079609  -0.272586   0.028126   0.034156
     4  C    0.001579  -0.061169   0.495850  -0.004586   0.013202  -0.006961
     5  C   -0.000990  -0.000527  -0.260158   0.000293  -0.007856  -0.000488
     6  C   -0.072302  -0.000582   0.012973  -0.019831  -0.009433   0.043819
     7  H    0.391493   0.001402  -0.000686   0.001971  -0.002294  -0.007707
     8  H    0.001402   0.375322  -0.012273   0.007129  -0.001600  -0.002330
     9  H   -0.000686  -0.012273   0.542157  -0.001118   0.000366   0.000006
    10  N    0.001971   0.007129  -0.001118   5.834481   0.078657   0.097141
    11  O   -0.002294  -0.001600   0.000366   0.078657   8.660878  -0.106657
    12  O   -0.007707  -0.002330   0.000006   0.097141  -0.106657   8.649782
    13  N    0.002407   0.000681   0.015905  -0.000026   0.000089   0.000139
    14  H   -0.000345  -0.001027   0.020741  -0.000034   0.000005   0.000001
    15  H    0.000060   0.000077  -0.002989   0.000014   0.000016   0.000003
    16  N    0.024384  -0.000188  -0.000224  -0.002177   0.000255   0.001137
    17  O   -0.012284  -0.000073   0.000258   0.000618  -0.000057  -0.000178
    18  O   -0.010031   0.000064  -0.000126   0.000265  -0.000019  -0.000119
             13         14         15         16         17         18
     1  C    0.014677  -0.011714  -0.000107  -0.257180   0.058782   0.030255
     2  C    0.004598   0.001620  -0.000160  -0.005339  -0.010218  -0.005200
     3  C    0.001582  -0.012785  -0.002325   0.004892  -0.004024  -0.000860
     4  C   -0.093205  -0.001940  -0.006564  -0.001418  -0.001843   0.002822
     5  C    0.039700  -0.027020   0.019069  -0.031515   0.019748  -0.024789
     6  C    0.071270  -0.038291  -0.044568   0.330531  -0.132396  -0.054021
     7  H    0.002407  -0.000345   0.000060   0.024384  -0.012284  -0.010031
     8  H    0.000681  -0.001027   0.000077  -0.000188  -0.000073   0.000064
     9  H    0.015905   0.020741  -0.002989  -0.000224   0.000258  -0.000126
    10  N   -0.000026  -0.000034   0.000014  -0.002177   0.000618   0.000265
    11  O    0.000089   0.000005   0.000016   0.000255  -0.000057  -0.000019
    12  O    0.000139   0.000001   0.000003   0.001137  -0.000178  -0.000119
    13  N    6.729259   0.283882   0.367190   0.011522  -0.001809   0.008605
    14  H    0.283882   0.594438  -0.031582   0.001335   0.001293  -0.002425
    15  H    0.367190  -0.031582   0.433902   0.018832   0.010522  -0.002374
    16  N    0.011522   0.001335   0.018832   5.956062   0.114378   0.145672
    17  O   -0.001809   0.001293   0.010522   0.114378   8.569506  -0.118719
    18  O    0.008605  -0.002425  -0.002374   0.145672  -0.118719   8.533516
 Mulliken atomic charges:
              1
     1  C   -0.174693
     2  C   -0.206842
     3  C   -0.367651
     4  C   -0.436660
     5  C    0.439885
     6  C    0.097047
     7  H    0.496190
     8  H    0.458969
     9  H    0.255036
    10  N    0.898044
    11  O   -0.581902
    12  O   -0.578810
    13  N   -0.456466
    14  H    0.223849
    15  H    0.240984
    16  N    0.689042
    17  O   -0.493504
    18  O   -0.502518
 Sum of Mulliken atomic charges =   0.00000
 Mulliken charges with hydrogens summed into heavy atoms:
              1
     1  C    0.321496
     2  C   -0.206842
     3  C    0.091318
     4  C   -0.181624
     5  C    0.439885
     6  C    0.097047
    10  N    0.898044
    11  O   -0.581902
    12  O   -0.578810
    13  N    0.008367
    16  N    0.689042
    17  O   -0.493504
    18  O   -0.502518
 Sum of Mulliken charges with hydrogens summed into heavy atoms =   0.00000
 Electronic spatial extent (au):  <R**2>=           2472.1102
 Charge=              0.0000 electrons
 Dipole moment (field-independent basis, Debye):
    X=             -2.4587    Y=              5.0460    Z=             -0.8268  Tot=              5.6737
 Quadrupole moment (field-independent basis, Debye-Ang):
   XX=            -91.4254   YY=            -66.6821   ZZ=            -77.5988
   XY=             -5.3450   XZ=              3.2255   YZ=             -1.9396
 Traceless Quadrupole moment (field-independent basis, Debye-Ang):
   XX=            -12.8566   YY=             11.8866   ZZ=              0.9700
   XY=             -5.3450   XZ=              3.2255   YZ=             -1.9396
 Octapole moment (field-independent basis, Debye-Ang**2):
  XXX=            -60.3140  YYY=             24.5205  ZZZ=             -0.7609  XYY=            -11.9026
  XXY=             39.9823  XXZ=            -10.1261  XZZ=             11.4231  YZZ=             -3.8713
  YYZ=             -2.6112  XYZ=              5.3109
 Hexadecapole moment (field-independent basis, Debye-Ang**3):
 XXXX=          -2380.2863 YYYY=           -684.9315 ZZZZ=           -152.8638 XXXY=            -52.4147
 XXXZ=             34.3037 YYYX=            -22.2853 YYYZ=             -8.4172 ZZZX=              1.6120
 ZZZY=             -1.3580 XXYY=           -496.1050 XXZZ=           -390.6374 YYZZ=           -168.4025
 XXYZ=            -17.3498 YYXZ=              9.6255 ZZXY=             -9.1918
 N-N= 7.810112417316D+02 E-N=-3.192443096450D+03  KE= 6.940631701313D+02
 Calling FoFJK, ICntrl=      2127 FMM=F ISym2X=0 I1Cent= 0 IOpClX= 0 NMat=1 NMatS=1 NMatT=0.
 FoFJK:  IHMeth= 1 ICntrl=  2127 DoSepK=T KAlg= 1 I1Cent= 0 FoldK=F
 ***** Axes restored to original set *****
 -------------------------------------------------------------------
 Center     Atomic                   Forces (Hartrees/Bohr)
 Number     Number              X              Y              Z
 -------------------------------------------------------------------
      1        6           0.005834401    0.010310726    0.000534886
      2        6           0.001801608    0.002724942    0.001638532
      3        6           0.006609742    0.000405918   -0.000241628
      4        6          -0.006166616   -0.002537782    0.000368303
      5        6           0.018939100    0.011755259    0.001374402
      6        6          -0.015320944   -0.022623237   -0.003538282
      7        1          -0.000518357    0.000330590   -0.000872850
      8        1          -0.000367161   -0.000343626   -0.000019175
      9        1           0.000427499    0.000688935    0.000119995
     10        7          -0.006139915    0.003598159    0.000878730
     11        8           0.003295362   -0.000183749   -0.000406036
     12        8           0.002499290   -0.001922430   -0.000176611
     13        7          -0.008224848   -0.001992643   -0.004558299
     14        1           0.000846300   -0.000031108   -0.000002578
     15        1           0.003518908   -0.001640924    0.002254823
     16        7          -0.008308895    0.004706600    0.008580001
     17        8           0.001383361   -0.001703557   -0.027140345
     18        8          -0.000108836   -0.001542075    0.021206133
 -------------------------------------------------------------------
 Cartesian Forces:  Max     0.027140345 RMS     0.007511019

 GradGradGradGradGradGradGradGradGradGradGradGradGradGradGradGradGradGrad
 Berny optimization.
 Internal  Forces:  Max     0.024005622 RMS     0.005439094
 Search for a local minimum.
 Step number   1 out of a maximum of   91
 All quantities printed in internal units (Hartrees-Bohrs-Radians)
 Mixed Optimization -- RFO/linear search
 Second derivative matrix not updated -- first step.
     Eigenvalues ---    0.00766   0.00766   0.00926   0.00926   0.01759
     Eigenvalues ---    0.01906   0.01914   0.02069   0.02136   0.02290
     Eigenvalues ---    0.02313   0.02323   0.02348   0.02358   0.04307
     Eigenvalues ---    0.15997   0.15999   0.15999   0.16000   0.16000
     Eigenvalues ---    0.22372   0.23494   0.24589   0.24966   0.24983
     Eigenvalues ---    0.24998   0.25000   0.25000   0.25000   0.25000
     Eigenvalues ---    0.35699   0.35740   0.35983   0.36196   0.37231
     Eigenvalues ---    0.42267   0.43820   0.46070   0.46532   0.46939
     Eigenvalues ---    0.47817   0.48521   0.48955   0.49313   0.97196
     Eigenvalues ---    0.97702   1.05155   1.051571000.000001000.00000
     Eigenvalues --- 1000.000001000.000001000.000001000.000001000.00000
     Eigenvalues --- 1000.000001000.000001000.000001000.000001000.00000
     Eigenvalues --- 1000.000001000.000001000.000001000.000001000.00000
     Eigenvalues --- 1000.000001000.000001000.000001000.000001000.00000
     Eigenvalues --- 1000.000001000.000001000.000001000.000001000.00000
     Eigenvalues --- 1000.000001000.000001000.000001000.000001000.00000
     Eigenvalues --- 1000.00000
 RFO step:  Lambda=-7.83995594D-03 EMin= 7.65814496D-03
 Linear search not attempted -- first point.
 Maximum step size (   0.300) exceeded in Quadratic search.
    -- Step size scaled by   0.938
 Iteration  1 RMS(Cart)=  0.04021535 RMS(Int)=  0.00289998
 Iteration  2 RMS(Cart)=  0.00309958 RMS(Int)=  0.00124801
 Iteration  3 RMS(Cart)=  0.00002103 RMS(Int)=  0.00124789
 Iteration  4 RMS(Cart)=  0.00000011 RMS(Int)=  0.00124789
 Variable       Old X    -DE/DX   Delta X   Delta X   Delta X     New X
                                 (Linear)    (Quad)   (Total)
    R1        2.61803  -0.00512   0.00000  -0.01002  -0.01005   2.60798
    R2        2.60384  -0.00855   0.00000  -0.01639  -0.01630   2.58755
    R3        2.04108   0.00050   0.00000   0.00128   0.00128   2.04236
    R4        2.60611   0.00307   0.00000   0.00598   0.00586   2.61198
    R5        2.75499   0.00059   0.00000   0.00145   0.00145   2.75643
    R6        2.60837  -0.00208   0.00000  -0.00347  -0.00355   2.60481
    R7        2.03776   0.00050   0.00000   0.00127   0.00127   2.03903
    R8        2.62499   0.00208   0.00000   0.00425   0.00427   2.62927
    R9        2.04555  -0.00049   0.00000  -0.00126  -0.00126   2.04429
   R10        2.65903  -0.00350   0.00000  -0.00753  -0.00741   2.65162
   R11        2.61388  -0.00336   0.00000  -0.00639  -0.00639   2.60749
   R12        2.77790  -0.00361   0.00000  -0.00928  -0.00928   2.76862
   R13        2.29574  -0.00187   0.00000  -0.00178  -0.00178   2.29395
   R14        2.29783  -0.00260   0.00000  -0.00249  -0.00249   2.29534
   R15        1.90236   0.00029   0.00000   0.00058   0.00058   1.90294
   R16        1.90753  -0.00045   0.00000  -0.00091  -0.00091   1.90662
   R17        2.26643   0.02401   0.00000   0.02125   0.02125   2.28768
   R18        2.26642   0.01777   0.00000   0.01573   0.01573   2.28215
    A1        2.08933  -0.00583   0.00000  -0.02526  -0.02521   2.06412
    A2        2.08154   0.00255   0.00000   0.01053   0.01048   2.09202
    A3        2.11226   0.00328   0.00000   0.01463   0.01459   2.12684
    A4        2.12576  -0.00140   0.00000  -0.00481  -0.00496   2.12080
    A5        2.07355  -0.00015   0.00000  -0.00066  -0.00060   2.07296
    A6        2.08381   0.00155   0.00000   0.00555   0.00561   2.08942
    A7        2.06801   0.00316   0.00000   0.01474   0.01454   2.08254
    A8        2.09255  -0.00164   0.00000  -0.00769  -0.00759   2.08496
    A9        2.12255  -0.00152   0.00000  -0.00702  -0.00692   2.11563
   A10        2.11308  -0.00040   0.00000   0.00001  -0.00007   2.11301
   A11        2.09019   0.00087   0.00000   0.00378   0.00379   2.09398
   A12        2.07974  -0.00046   0.00000  -0.00362  -0.00360   2.07614
   A13        2.08585  -0.00977   0.00000  -0.03548  -0.03534   2.05050
   A14        2.13247  -0.00294   0.00000  -0.01076  -0.01083   2.12164
   A15        2.06417   0.01271   0.00000   0.04619   0.04612   2.11029
   A16        2.08363   0.01425   0.00000   0.05104   0.05114   2.13477
   A17        2.13931  -0.01401   0.00000  -0.05012  -0.05033   2.08898
   A18        2.05926  -0.00021   0.00000   0.00017  -0.00002   2.05924
   A19        2.05904  -0.00280   0.00000  -0.01015  -0.01036   2.04868
   A20        2.05743  -0.00063   0.00000  -0.00226  -0.00247   2.05496
   A21        2.16671   0.00343   0.00000   0.01253   0.01233   2.17904
   A22        2.01731  -0.00032   0.00000   0.00596   0.00533   2.02264
   A23        2.00252   0.00637   0.00000   0.04339   0.04277   2.04529
   A24        1.96914  -0.00259   0.00000  -0.00351  -0.00435   1.96479
   A25        2.06635  -0.01013   0.00000  -0.03686  -0.04315   2.02321
   A26        2.06634  -0.00816   0.00000  -0.02968  -0.03597   2.03037
   A27        2.15049   0.01829   0.00000   0.06654   0.06009   2.21058
    D1        0.01452  -0.00057   0.00000  -0.01804  -0.01785  -0.00334
    D2       -3.13922  -0.00037   0.00000  -0.01025  -0.01005   3.13391
    D3       -3.11558  -0.00020   0.00000  -0.00837  -0.00837  -3.12395
    D4        0.01386   0.00000   0.00000  -0.00058  -0.00056   0.01330
    D5        0.01637   0.00068   0.00000   0.01442   0.01433   0.03070
    D6        3.10920   0.00139   0.00000   0.04143   0.04121  -3.13277
    D7       -3.13692   0.00029   0.00000   0.00454   0.00461  -3.13231
    D8       -0.04409   0.00101   0.00000   0.03154   0.03149  -0.01259
    D9       -0.02239   0.00022   0.00000   0.00846   0.00870  -0.01369
   D10        3.13219   0.00015   0.00000   0.00641   0.00654   3.13872
   D11        3.13142   0.00003   0.00000   0.00067   0.00087   3.13229
   D12        0.00281  -0.00004   0.00000  -0.00138  -0.00130   0.00152
   D13       -3.11750  -0.00051   0.00000  -0.02690  -0.02692   3.13877
   D14        0.02048   0.00015   0.00000   0.00915   0.00911   0.02960
   D15        0.01225  -0.00033   0.00000  -0.01937  -0.01934  -0.00709
   D16       -3.13296   0.00032   0.00000   0.01667   0.01670  -3.11626
   D17       -0.00084   0.00010   0.00000   0.00470   0.00479   0.00394
   D18       -3.12183  -0.00015   0.00000  -0.00465  -0.00475  -3.12658
   D19        3.12753   0.00017   0.00000   0.00679   0.00699   3.13452
   D20        0.00654  -0.00008   0.00000  -0.00255  -0.00254   0.00400
   D21        0.03115  -0.00040   0.00000  -0.00933  -0.00953   0.02161
   D22        3.13190  -0.00013   0.00000  -0.00980  -0.00998   3.12192
   D23       -3.13093  -0.00014   0.00000   0.00004  -0.00001  -3.13094
   D24       -0.03017   0.00013   0.00000  -0.00043  -0.00046  -0.03064
   D25       -0.03873  -0.00020   0.00000  -0.00108  -0.00093  -0.03966
   D26       -3.13379  -0.00047   0.00000  -0.02535  -0.02594   3.12346
   D27       -3.14108  -0.00012   0.00000   0.00061   0.00083  -3.14024
   D28        0.04705  -0.00039   0.00000  -0.02366  -0.02417   0.02287
   D29        0.23679  -0.00069   0.00000  -0.00511  -0.00533   0.23146
   D30        2.57471   0.00198   0.00000   0.04409   0.04437   2.61908
   D31       -2.94515  -0.00092   0.00000  -0.00739  -0.00767  -2.95282
   D32       -0.60723   0.00175   0.00000   0.04181   0.04203  -0.56520
   D33       -1.52213  -0.00335   0.00000  -0.18341  -0.18236  -1.70449
   D34        1.61947  -0.00012   0.00000   0.01204   0.01184   1.63131
   D35        1.57135  -0.00225   0.00000  -0.15539  -0.15519   1.41616
   D36       -1.57024   0.00098   0.00000   0.04007   0.03902  -1.53123
         Item               Value     Threshold  Converged?
 Maximum Force            0.024006     0.000015     NO 
 RMS     Force            0.005439     0.000010     NO 
 Maximum Displacement     0.188255     0.000060     NO 
 RMS     Displacement     0.041555     0.000040     NO 
 Predicted change in Energy=-4.243059D-03
 GradGradGradGradGradGradGradGradGradGradGradGradGradGradGradGradGradGrad

                          Input orientation:                          
 ---------------------------------------------------------------------
 Center     Atomic      Atomic             Coordinates (Angstroms)
 Number     Number       Type             X           Y           Z
 ---------------------------------------------------------------------
      1          6           0       -0.092584    0.987403   -0.015708
      2          6           0       -0.942405   -0.099744    0.007849
      3          6           0       -0.458833   -1.394385    0.030934
      4          6           0        0.903025   -1.606667    0.014005
      5          6           0        1.795580   -0.539917   -0.021164
      6          6           0        1.256939    0.755725   -0.011749
      7          1           0       -0.499507    1.988639   -0.016915
      8          1           0       -1.153285   -2.219954    0.051682
      9          1           0        1.292854   -2.615772    0.017712
     10          7           0       -2.382097    0.134537    0.013719
     11          8           0       -3.106173   -0.839613    0.031529
     12          8           0       -2.767853    1.285289   -0.034363
     13          7           0        3.160800   -0.740043   -0.015251
     14          1           0        3.467789   -1.682563   -0.192598
     15          1           0        3.729541   -0.052407   -0.486049
     16          7           0        2.187513    1.887247   -0.025067
     17          8           0        2.636596    2.190370   -1.107640
     18          8           0        2.577449    2.272819    1.050912
 ---------------------------------------------------------------------
                    Distance matrix (angstroms):
                    1          2          3          4          5
     1  C    0.000000
     2  C    1.380086   0.000000
     3  C    2.410234   1.382198   0.000000
     4  C    2.778726   2.382534   1.378408   0.000000
     5  C    2.428559   2.773293   2.411475   1.391347   0.000000
     6  C    1.369271   2.359941   2.751121   2.388894   1.403179
     7  H    1.080769   2.134974   3.383607   3.859310   3.414826
     8  H    3.378871   2.131123   1.079008   2.146148   3.394648
     9  H    3.860495   3.365542   2.135502   1.081791   2.136216
    10  N    2.443382   1.458641   2.456998   3.718039   4.231913
    11  O    3.524477   2.286889   2.704844   4.081954   4.911189
    12  O    2.691867   2.291802   3.537864   4.673445   4.914923
    13  N    3.683555   4.152928   3.678593   2.418562   1.379823
    14  H    4.453792   4.689915   3.943523   2.574191   2.032563
    15  H    3.988867   4.698218   4.428392   3.264195   2.047923
    16  N    2.451254   3.707506   4.216087   3.722750   2.458607
    17  O    3.176141   4.392970   4.871191   4.322134   3.056502
    18  O    3.149452   4.371087   4.869061   4.350779   3.110008
                    6          7          8          9         10
     6  C    0.000000
     7  H    2.145975   0.000000
     8  H    3.829865   4.259623   0.000000
     9  H    3.371816   4.941088   2.478189   0.000000
    10  N    3.691762   2.642494   2.656134   4.590150   0.000000
    11  O    4.645828   3.846565   2.391551   4.744088   1.213907
    12  O    4.059544   2.374952   3.860176   5.631192   1.214640
    13  N    2.421161   4.565474   4.561354   2.647389   5.611545
    14  H    3.296333   5.408145   4.658625   2.376015   6.129077
    15  H    2.644201   4.719195   5.369302   3.572402   6.134886
    16  N    1.465089   2.688945   5.294896   4.591233   4.894367
    17  O    2.272144   3.326488   5.929434   5.115766   5.538156
    18  O    2.274768   3.269353   5.924681   5.159070   5.499556
                   11         12         13         14         15
    11  O    0.000000
    12  O    2.152675   0.000000
    13  N    6.267939   6.265082   0.000000
    14  H    6.631574   6.907706   1.006995   0.000000
    15  H    6.900330   6.649028   1.008940   1.676913   0.000000
    16  N    5.955004   4.991802   2.801791   3.796145   2.520439
    17  O    6.592261   5.583830   3.171029   4.065439   2.571177
    18  O    6.559720   5.543039   3.248744   4.240763   3.015998
                   16         17         18
    16  N    0.000000
    17  O    1.210588   0.000000
    18  O    1.207661   2.160935   0.000000
 Stoichiometry    C6H5N3O4
 Framework group  C1[X(C6H5N3O4)]
 Deg. of freedom    48
 Full point group                 C1      NOp   1
 Largest Abelian subgroup         C1      NOp   1
 Largest concise Abelian subgroup C1      NOp   1
                         Standard orientation:                         
 ---------------------------------------------------------------------
 Center     Atomic      Atomic             Coordinates (Angstroms)
 Number     Number       Type             X           Y           Z
 ---------------------------------------------------------------------
      1          6           0        0.321437   -0.740787   -0.007190
      2          6           0        1.403942    0.115173    0.005242
      3          6           0        1.239718    1.487310    0.032467
      4          6           0       -0.033733    2.014881    0.031129
      5          6           0       -1.153085    1.188842    0.007560
      6          6           0       -0.935210   -0.197311    0.012193
      7          1           0        0.480648   -1.809754   -0.011983
      8          1           0        2.109511    2.125730    0.044195
      9          1           0       -0.174447    3.087458    0.038215
     10          7           0        2.747706   -0.452117   -0.005359
     11          8           0        3.681302    0.323706    0.002917
     12          8           0        2.850536   -1.661311   -0.056606
     13          7           0       -2.432405    1.705355    0.029116
     14          1           0       -2.510424    2.693982   -0.145727
     15          1           0       -3.152712    1.172056   -0.434251
     16          7           0       -2.106532   -1.077361    0.010990
     17          8           0       -2.626939   -1.264229   -1.065941
     18          8           0       -2.563944   -1.361824    1.091870
 ---------------------------------------------------------------------
 Rotational constants (GHZ):      1.5614623      0.5368015      0.4246762
 Basis read from rwf:  (5D, 7F)
 There are   538 symmetry adapted basis functions of A   symmetry.
 Integral buffers will be    131072 words long.
 Raffenetti 2 integral format.
 Two-electron integral symmetry is turned on.
   538 basis functions,   821 primitive gaussians,   616 cartesian basis functions
    47 alpha electrons       47 beta electrons
       nuclear repulsion energy       782.5722295805 Hartrees.
 NAtoms=   18 NActive=   18 NUniq=   18 SFac= 7.50D-01 NAtFMM=   80 NAOKFM=F Big=F
 One-electron integrals computed using PRISM.
 NBasis=   538 RedAO= T  NBF=   538
 NBsUse=   536 1.00D-06 NBFU=   536
 Initial guess read from the read-write file.
 B after Tr=     0.000000    0.000000    0.000000
         Rot=    1.000000    0.000000    0.000000    0.000000 Ang=   0.00 deg.
 Initial guess orbital symmetries:
       Occupied  (A) (A) (A) (A) (A) (A) (A) (A) (A) (A) (A) (A)
                 (A) (A) (A) (A) (A) (A) (A) (A) (A) (A) (A) (A)
                 (A) (A) (A) (A) (A) (A) (A) (A) (A) (A) (A) (A)
                 (A) (A) (A) (A) (A) (A) (A) (A) (A) (A) (A)
       Virtual   (A) (A) (A) (A) (A) (A) (A) (A) (A) (A) (A) (A)
                 (A) (A) (A) (A) (A) (A) (A) (A) (A) (A) (A) (A)
                 (A) (A) (A) (A) (A) (A) (A) (A) (A) (A) (A) (A)
                 (A) (A) (A) (A) (A) (A) (A) (A) (A) (A) (A) (A)
                 (A) (A) (A) (A) (A) (A) (A) (A) (A) (A) (A) (A)
                 (A) (A) (A) (A) (A) (A) (A) (A) (A) (A) (A) (A)
                 (A) (A) (A) (A) (A) (A) (A) (A) (A) (A) (A) (A)
                 (A) (A) (A) (A) (A) (A) (A) (A) (A) (A) (A) (A)
                 (A) (A) (A) (A) (A) (A) (A) (A) (A) (A) (A) (A)
                 (A) (A) (A) (A) (A) (A) (A) (A) (A) (A) (A) (A)
                 (A) (A) (A) (A) (A) (A) (A) (A) (A) (A) (A) (A)
                 (A) (A) (A) (A) (A) (A) (A) (A) (A) (A) (A) (A)
                 (A) (A) (A) (A) (A) (A) (A) (A) (A) (A) (A) (A)
                 (A) (A) (A) (A) (A) (A) (A) (A) (A) (A) (A) (A)
                 (A) (A) (A) (A) (A) (A) (A) (A) (A) (A) (A) (A)
                 (A) (A) (A) (A) (A) (A) (A) (A) (A) (A) (A) (A)
                 (A) (A) (A) (A) (A) (A) (A) (A) (A) (A) (A) (A)
                 (A) (A) (A) (A) (A) (A) (A) (A) (A) (A) (A) (A)
                 (A) (A) (A) (A) (A) (A) (A) (A) (A) (A) (A) (A)
                 (A) (A) (A) (A) (A) (A) (A) (A) (A) (A) (A) (A)
                 (A) (A) (A) (A) (A) (A) (A) (A) (A) (A) (A) (A)
                 (A) (A) (A) (A) (A) (A) (A) (A) (A) (A) (A) (A)
                 (A) (A) (A) (A) (A) (A) (A) (A) (A) (A) (A) (A)
                 (A) (A) (A) (A) (A) (A) (A) (A) (A) (A) (A) (A)
                 (A) (A) (A) (A) (A) (A) (A) (A) (A) (A) (A) (A)
                 (A) (A) (A) (A) (A) (A) (A) (A) (A) (A) (A) (A)
                 (A) (A) (A) (A) (A) (A) (A) (A) (A) (A) (A) (A)
                 (A) (A) (A) (A) (A) (A) (A) (A) (A) (A) (A) (A)
                 (A) (A) (A) (A) (A) (A) (A) (A) (A) (A) (A) (A)
                 (A) (A) (A) (A) (A) (A) (A) (A) (A) (A) (A) (A)
                 (A) (A) (A) (A) (A) (A) (A) (A) (A) (A) (A) (A)
                 (A) (A) (A) (A) (A) (A) (A) (A) (A) (A) (A) (A)
                 (A) (A) (A) (A) (A) (A) (A) (A) (A) (A) (A) (A)
                 (A) (A) (A) (A) (A) (A) (A) (A) (A) (A) (A) (A)
                 (A) (A) (A) (A) (A) (A) (A) (A) (A) (A) (A) (A)
                 (A) (A) (A) (A) (A) (A) (A) (A) (A) (A) (A) (A)
                 (A) (A) (A) (A) (A) (A) (A) (A) (A) (A) (A) (A)
                 (A) (A) (A) (A) (A) (A) (A) (A) (A) (A) (A) (A)
                 (A) (A) (A) (A) (A) (A) (A) (A) (A) (A) (A) (A)
                 (A) (A) (A) (A) (A) (A) (A) (A) (A) (A) (A) (A)
                 (A) (A) (A) (A) (A) (A) (A) (A) (A)
 Harris functional with IExCor=20419 diagonalized for initial guess.
 ExpMin= 4.85D-02 ExpMax= 2.70D+04 ExpMxC= 9.22D+02 IAcc=3 IRadAn=         5 AccDes= 0.00D+00
 HarFok:  IExCor=20419 AccDes= 0.00D+00 IRadAn=         5 IDoV= 1
 ScaDFX=  1.000000  1.000000  1.000000  1.000000
 FoFCou: FMM=F IPFlag=           0 FMFlag=      100000 FMFlg1=           0
         NFxFlg=           0 DoJE=T BraDBF=F KetDBF=T FulRan=T
         Omega=  0.000000  0.000000  1.000000  0.000000  0.000000 ICntrl=     500 IOpCl=  0
         NMat0=    1 NMatS0=    1 NMatT0=    0 NMatD0=    1 NMtDS0=    0 NMtDT0=    0
         I1Cent=           4 NGrid=           0.
 Petite list used in FoFCou.
 FoFJK:  IHMeth= 1 ICntrl=     0 DoSepK=T KAlg= 1 I1Cent= 0 FoldK=F
 Gradient too large for Newton-Raphson -- use scaled steepest descent instead.
 FoFJK:  IHMeth= 1 ICntrl=     0 DoSepK=T KAlg= 1 I1Cent= 0 FoldK=F
 FoFJK:  IHMeth= 1 ICntrl=     0 DoSepK=T KAlg= 1 I1Cent= 0 FoldK=F
 FoFJK:  IHMeth= 1 ICntrl=     0 DoSepK=T KAlg= 1 I1Cent= 0 FoldK=F
 FoFJK:  IHMeth= 1 ICntrl=     0 DoSepK=T KAlg= 1 I1Cent= 0 FoldK=F
 FoFJK:  IHMeth= 1 ICntrl=     0 DoSepK=T KAlg= 1 I1Cent= 0 FoldK=F
 FoFJK:  IHMeth= 1 ICntrl=     0 DoSepK=T KAlg= 1 I1Cent= 0 FoldK=F
 FoFJK:  IHMeth= 1 ICntrl=     0 DoSepK=T KAlg= 1 I1Cent= 0 FoldK=F
 Gradient too large for Newton-Raphson -- use scaled steepest descent instead.
 FoFJK:  IHMeth= 1 ICntrl=     0 DoSepK=T KAlg= 1 I1Cent= 0 FoldK=F
 FoFJK:  IHMeth= 1 ICntrl=     0 DoSepK=T KAlg= 1 I1Cent= 0 FoldK=F
 FoFJK:  IHMeth= 1 ICntrl=     0 DoSepK=T KAlg= 1 I1Cent= 0 FoldK=F
 Gradient too large for Newton-Raphson -- use scaled steepest descent instead.
 FoFJK:  IHMeth= 1 ICntrl=     0 DoSepK=T KAlg= 1 I1Cent= 0 FoldK=F
 FoFJK:  IHMeth= 1 ICntrl=     0 DoSepK=T KAlg= 1 I1Cent= 0 FoldK=F
 FoFJK:  IHMeth= 1 ICntrl=     0 DoSepK=T KAlg= 1 I1Cent= 0 FoldK=F
 Gradient too large for Newton-Raphson -- use scaled steepest descent instead.
 FoFJK:  IHMeth= 1 ICntrl=     0 DoSepK=T KAlg= 1 I1Cent= 0 FoldK=F
 FoFJK:  IHMeth= 1 ICntrl=     0 DoSepK=T KAlg= 1 I1Cent= 0 FoldK=F
 FoFJK:  IHMeth= 1 ICntrl=     0 DoSepK=T KAlg= 1 I1Cent= 0 FoldK=F
 LinEq1:  Iter=  0 NonCon=     1 RMS=4.56D-05 Max=3.15D-03
 AX will form     1 AO Fock derivatives at one time.
 FoFJK:  IHMeth= 1 ICntrl=     0 DoSepK=T KAlg= 1 I1Cent= 0 FoldK=F
 LinEq1:  Iter=  1 NonCon=     1 RMS=5.87D-05 Max=4.05D-03
 FoFJK:  IHMeth= 1 ICntrl=     0 DoSepK=T KAlg= 1 I1Cent= 0 FoldK=F
 LinEq1:  Iter=  2 NonCon=     1 RMS=9.23D-06 Max=4.76D-04
 FoFJK:  IHMeth= 1 ICntrl=     0 DoSepK=T KAlg= 1 I1Cent= 0 FoldK=F
 LinEq1:  Iter=  3 NonCon=     1 RMS=7.00D-06 Max=3.72D-04
 FoFJK:  IHMeth= 1 ICntrl=     0 DoSepK=T KAlg= 1 I1Cent= 0 FoldK=F
 LinEq1:  Iter=  4 NonCon=     1 RMS=3.08D-06 Max=1.41D-04
 FoFJK:  IHMeth= 1 ICntrl=     0 DoSepK=T KAlg= 1 I1Cent= 0 FoldK=F
 LinEq1:  Iter=  5 NonCon=     1 RMS=3.04D-06 Max=1.73D-04
 FoFJK:  IHMeth= 1 ICntrl=     0 DoSepK=T KAlg= 1 I1Cent= 0 FoldK=F
 LinEq1:  Iter=  6 NonCon=     1 RMS=1.20D-06 Max=6.50D-05
 FoFJK:  IHMeth= 1 ICntrl=     0 DoSepK=T KAlg= 1 I1Cent= 0 FoldK=F
 LinEq1:  Iter=  7 NonCon=     1 RMS=8.56D-07 Max=3.49D-05
 FoFJK:  IHMeth= 1 ICntrl=     0 DoSepK=T KAlg= 1 I1Cent= 0 FoldK=F
 LinEq1:  Iter=  8 NonCon=     1 RMS=3.39D-07 Max=1.39D-05
 FoFJK:  IHMeth= 1 ICntrl=     0 DoSepK=T KAlg= 1 I1Cent= 0 FoldK=F
 LinEq1:  Iter=  9 NonCon=     1 RMS=1.32D-07 Max=6.00D-06
 FoFJK:  IHMeth= 1 ICntrl=     0 DoSepK=T KAlg= 1 I1Cent= 0 FoldK=F
 LinEq1:  Iter= 10 NonCon=     1 RMS=9.07D-08 Max=4.44D-06
 FoFJK:  IHMeth= 1 ICntrl=     0 DoSepK=T KAlg= 1 I1Cent= 0 FoldK=F
 LinEq1:  Iter= 11 NonCon=     1 RMS=2.99D-08 Max=1.50D-06
 FoFJK:  IHMeth= 1 ICntrl=     0 DoSepK=T KAlg= 1 I1Cent= 0 FoldK=F
 LinEq1:  Iter= 12 NonCon=     1 RMS=1.06D-08 Max=4.42D-07
 FoFJK:  IHMeth= 1 ICntrl=     0 DoSepK=T KAlg= 1 I1Cent= 0 FoldK=F
 LinEq1:  Iter= 13 NonCon=     0 RMS=4.30D-09 Max=1.75D-07
 Linear equations converged to 2.144D-08 2.144D-07 after    13 iterations.
 FoFJK:  IHMeth= 1 ICntrl=     0 DoSepK=T KAlg= 1 I1Cent= 0 FoldK=F
 FoFJK:  IHMeth= 1 ICntrl=     0 DoSepK=T KAlg= 1 I1Cent= 0 FoldK=F
 FoFJK:  IHMeth= 1 ICntrl=     0 DoSepK=T KAlg= 1 I1Cent= 0 FoldK=F
 LinEq1:  Iter=  0 NonCon=     1 RMS=3.07D-07 Max=2.43D-05
 FoFJK:  IHMeth= 1 ICntrl=     0 DoSepK=T KAlg= 1 I1Cent= 0 FoldK=F
 LinEq1:  Iter=  1 NonCon=     1 RMS=2.72D-07 Max=1.39D-05
 FoFJK:  IHMeth= 1 ICntrl=     0 DoSepK=T KAlg= 1 I1Cent= 0 FoldK=F
 LinEq1:  Iter=  2 NonCon=     1 RMS=1.70D-07 Max=9.96D-06
 FoFJK:  IHMeth= 1 ICntrl=     0 DoSepK=T KAlg= 1 I1Cent= 0 FoldK=F
 LinEq1:  Iter=  3 NonCon=     1 RMS=9.24D-08 Max=4.03D-06
 FoFJK:  IHMeth= 1 ICntrl=     0 DoSepK=T KAlg= 1 I1Cent= 0 FoldK=F
 LinEq1:  Iter=  4 NonCon=     1 RMS=5.96D-08 Max=2.94D-06
 FoFJK:  IHMeth= 1 ICntrl=     0 DoSepK=T KAlg= 1 I1Cent= 0 FoldK=F
 LinEq1:  Iter=  5 NonCon=     1 RMS=2.90D-08 Max=1.07D-06
 FoFJK:  IHMeth= 1 ICntrl=     0 DoSepK=T KAlg= 1 I1Cent= 0 FoldK=F
 LinEq1:  Iter=  6 NonCon=     1 RMS=2.19D-08 Max=1.63D-06
 FoFJK:  IHMeth= 1 ICntrl=     0 DoSepK=T KAlg= 1 I1Cent= 0 FoldK=F
 LinEq1:  Iter=  7 NonCon=     1 RMS=1.58D-08 Max=7.80D-07
 FoFJK:  IHMeth= 1 ICntrl=     0 DoSepK=T KAlg= 1 I1Cent= 0 FoldK=F
 LinEq1:  Iter=  8 NonCon=     1 RMS=9.09D-09 Max=4.26D-07
 FoFJK:  IHMeth= 1 ICntrl=     0 DoSepK=T KAlg= 1 I1Cent= 0 FoldK=F
 LinEq1:  Iter=  9 NonCon=     1 RMS=4.64D-09 Max=2.26D-07
 FoFJK:  IHMeth= 1 ICntrl=     0 DoSepK=T KAlg= 1 I1Cent= 0 FoldK=F
 LinEq1:  Iter= 10 NonCon=     1 RMS=3.06D-09 Max=1.11D-07
 FoFJK:  IHMeth= 1 ICntrl=     0 DoSepK=T KAlg= 1 I1Cent= 0 FoldK=F
 LinEq1:  Iter= 11 NonCon=     1 RMS=1.53D-09 Max=6.22D-08
 FoFJK:  IHMeth= 1 ICntrl=     0 DoSepK=T KAlg= 1 I1Cent= 0 FoldK=F
 LinEq1:  Iter= 12 NonCon=     1 RMS=8.22D-10 Max=3.23D-08
 FoFJK:  IHMeth= 1 ICntrl=     0 DoSepK=T KAlg= 1 I1Cent= 0 FoldK=F
 LinEq1:  Iter= 13 NonCon=     1 RMS=3.83D-10 Max=1.20D-08
 FoFJK:  IHMeth= 1 ICntrl=     0 DoSepK=T KAlg= 1 I1Cent= 0 FoldK=F
 LinEq1:  Iter= 14 NonCon=     1 RMS=2.06D-10 Max=9.55D-09
 FoFJK:  IHMeth= 1 ICntrl=     0 DoSepK=T KAlg= 1 I1Cent= 0 FoldK=F
 LinEq1:  Iter= 15 NonCon=     0 RMS=1.18D-10 Max=5.40D-09
 Linear equations converged to 5.432D-10 5.432D-09 after    15 iterations.
 FoFJK:  IHMeth= 1 ICntrl=     0 DoSepK=T KAlg= 1 I1Cent= 0 FoldK=F
 SCF Done:  E(RCAM-B3LYP) =  -696.601152227     a.u. after    7 cycles
            Convg  =    0.5031D-08                    49 Fock formations.
              S**2 =  0.0000                  -V/T =  2.0037
 Calling FoFJK, ICntrl=      2127 FMM=F ISym2X=0 I1Cent= 0 IOpClX= 0 NMat=1 NMatS=1 NMatT=0.
 FoFJK:  IHMeth= 1 ICntrl=  2127 DoSepK=T KAlg= 1 I1Cent= 0 FoldK=F
 ***** Axes restored to original set *****
 -------------------------------------------------------------------
 Center     Atomic                   Forces (Hartrees/Bohr)
 Number     Number              X              Y              Z
 -------------------------------------------------------------------
      1        6           0.000426464    0.002457063    0.002390564
      2        6          -0.000779856   -0.000301489    0.001564873
      3        6           0.002119873   -0.000165379    0.000127445
      4        6          -0.004689229   -0.001220443    0.000435872
      5        6           0.011791407    0.006260069   -0.000162759
      6        6          -0.010122482   -0.004580962   -0.002297068
      7        1           0.000671898   -0.000256955   -0.000388155
      8        1          -0.000136308   -0.000080652    0.000017580
      9        1          -0.000103653   -0.000076266    0.000025816
     10        7          -0.000714086   -0.000414611   -0.005554680
     11        8          -0.000591077    0.001099188    0.001893703
     12        8           0.000062881   -0.001500894    0.002019552
     13        7          -0.006493527   -0.000046144   -0.003315983
     14        1          -0.000488165    0.000256309    0.000622273
     15        1           0.000072841    0.000826929    0.001891692
     16        7           0.012933756   -0.024316045    0.005115134
     17        8          -0.000167900    0.010630144   -0.003408699
     18        8          -0.003792837    0.011430137   -0.000977158
 -------------------------------------------------------------------
 Cartesian Forces:  Max     0.024316045 RMS     0.005283565

 GradGradGradGradGradGradGradGradGradGradGradGradGradGradGradGradGradGrad
 Berny optimization.
 Using GEDIIS/GDIIS optimizer.
 Internal  Forces:  Max     0.011326417 RMS     0.003009753
 Search for a local minimum.
 Step number   2 out of a maximum of   91
 All quantities printed in internal units (Hartrees-Bohrs-Radians)
 Mixed Optimization -- RFO/linear search
 Update second derivatives using D2CorX and points    1    2
 DE= -1.77D-03 DEPred=-4.24D-03 R= 4.18D-01
 Trust test= 4.18D-01 RLast= 2.99D-01 DXMaxT set to 3.00D-01
 Use linear search instead of GDIIS.
     Eigenvalues ---    0.00670   0.00926   0.00939   0.01626   0.01851
     Eigenvalues ---    0.01905   0.02033   0.02064   0.02178   0.02290
     Eigenvalues ---    0.02320   0.02347   0.02358   0.02593   0.03959
     Eigenvalues ---    0.15735   0.15998   0.15999   0.15999   0.16027
     Eigenvalues ---    0.20303   0.22496   0.23611   0.24925   0.24994
     Eigenvalues ---    0.25000   0.25000   0.25000   0.25000   0.30169
     Eigenvalues ---    0.35698   0.35977   0.36194   0.36409   0.37273
     Eigenvalues ---    0.42095   0.43468   0.46068   0.46535   0.47085
     Eigenvalues ---    0.47906   0.48486   0.49065   0.49818   0.96795
     Eigenvalues ---    0.97626   0.99222   1.052381000.000001000.00000
     Eigenvalues --- 1000.000001000.000001000.000001000.000001000.00000
     Eigenvalues --- 1000.000001000.000001000.000001000.000001000.00000
     Eigenvalues --- 1000.000001000.000001000.000001000.000001000.00000
     Eigenvalues --- 1000.000001000.000001000.000001000.000001000.00000
     Eigenvalues --- 1000.000001000.000001000.000001000.000001000.00000
     Eigenvalues --- 1000.000001000.000001000.000001000.000001000.00000
     Eigenvalues --- 1000.00000
 RFO step:  Lambda=-1.01615256D-02 EMin= 6.69705979D-03
 Quartic linear search produced a step of -0.34088.
 Maximum step size (   0.300) exceeded in Quadratic search.
    -- Step size scaled by   0.492
 Iteration  1 RMS(Cart)=  0.05254763 RMS(Int)=  0.00505904
 Iteration  2 RMS(Cart)=  0.00491243 RMS(Int)=  0.00221750
 Iteration  3 RMS(Cart)=  0.00003926 RMS(Int)=  0.00221728
 Iteration  4 RMS(Cart)=  0.00000017 RMS(Int)=  0.00221728
 Variable       Old X    -DE/DX   Delta X   Delta X   Delta X     New X
                                 (Linear)    (Quad)   (Total)
    R1        2.60798   0.00150   0.00343  -0.00810  -0.00467   2.60331
    R2        2.58755   0.00034   0.00556  -0.01458  -0.00902   2.57852
    R3        2.04236  -0.00049  -0.00043   0.00071   0.00028   2.04263
    R4        2.61198   0.00011  -0.00200   0.00541   0.00340   2.61538
    R5        2.75643   0.00109  -0.00049   0.00226   0.00177   2.75820
    R6        2.60481  -0.00124   0.00121  -0.00409  -0.00288   2.60193
    R7        2.03903   0.00015  -0.00043   0.00128   0.00085   2.03988
[...]
 195616,-0.116167,0.0462457,0.1850937,-0.6932194,-0.4712105,0.0218509,0
 .2482711,-0.5902471,-0.0437387,0.056712,0.0051475,-0.039272,0.1794185,
 0.005758,-0.0025897,0.0123205,0.1633471,0.00043,-0.0022717,0.0008755,0
 .1373999,0.1273404,-0.0372079,-0.0016122,-0.0198724,0.0923339,-0.00048
 14,-0.0007723,0.0006962,0.1302289,0.0152179,0.0582392,0.0113034,0.0422
 49,-0.0200303,-0.0106262,0.0105286,-0.0117117,0.138756,2.2752481,0.069
 1388,-0.1338406,-0.1018959,1.5656191,0.0703755,-0.1421284,0.0587528,0.
 268729,-1.0562763,-0.4379103,0.0335216,-0.3309722,-0.8433388,-0.006232
 1,0.0387053,0.0010365,-0.253225,-0.8332497,0.3175093,0.0554462,0.34449
 34,-1.0031913,-0.0602119,0.056754,-0.05838,-0.2503687,-1.6155065,0.447
 0215,0.0994604,0.2836631,-0.3634404,-0.0140895,0.0915149,-0.0251731,-0
 .4778547,0.2203199,-0.0790456,0.0016518,-0.0971051,0.1926321,0.0013465
 ,0.0007885,0.0001131,0.3009234,0.2888801,0.0447717,0.0015967,0.0827873
 ,0.3050079,-0.0044331,0.0034505,-0.0018549,0.2801096,1.6229726,0.24286
 79,-0.0805729,0.2359935,2.0147327,0.0687861,-0.0809016,0.0683194,0.273
 1021,-1.2150233,-0.0337277,0.0636804,-0.0829753,-0.5530044,-0.0088514,
 0.061292,-0.0122007,-0.2587458,-0.5179955,0.1540324,0.0265598,0.128357
 4,-1.2788996,-0.0592113,0.0253152,-0.0609537,-0.2417008\Polar=165.8118
 82,2.2412069,132.9238107,-7.0982295,3.3930787,60.3997451\PG=C01 [X(C6H
 5N3O4)]\NImag=0\\0.70229250,0.00194751,0.78482721,-0.03735102,0.030568
 34,0.15524529,-0.19871896,-0.14510095,0.00196476,0.59868049,-0.0808271
 2,-0.28561667,-0.00513274,0.04860789,0.76085047,0.00507885,-0.00076516
 ,-0.06672004,-0.02909322,0.02697932,0.13914457,0.05951711,0.00438308,-
 0.00328538,-0.13301459,0.01424878,0.00528817,0.76951860,-0.04526851,-0
 .05901254,-0.00017290,0.07904925,-0.29726861,-0.01660797,0.04274244,0.
 70996846,-0.00569101,-0.00354682,0.00825814,0.00842778,-0.01220454,-0.
 06651344,-0.04005208,0.02424525,0.15350205,-0.05579958,-0.02497037,0.0
 0246681,-0.01729754,0.08626214,0.00595257,-0.39599954,0.00860964,0.023
 18270,0.75170924,-0.01754123,-0.00997238,0.00079074,0.03415262,0.01504
 922,-0.00201773,0.07648593,-0.14424958,-0.00923239,-0.06150828,0.70175
 433,0.00282690,0.00129552,-0.00182041,0.00342772,-0.00555871,0.0082940
 7,0.02647129,-0.00462002,-0.06298730,-0.04534817,0.03196778,0.13281675
 ,-0.00210098,0.04209260,0.00232314,0.01253283,-0.02413738,-0.00237242,
 -0.05629616,-0.00894363,0.00344275,-0.16719763,-0.09729332,0.00164651,
 0.76559457,0.08399579,0.02125210,-0.00477822,-0.01843636,-0.06676476,-
 0.00173159,-0.05618056,0.05749633,0.00656716,-0.04010645,-0.23385039,-
 0.00503884,-0.03330103,0.66696181,0.00435333,-0.00193082,0.00168287,-0
 .00209614,-0.00134428,-0.00509359,0.00115381,0.00335742,0.00082948,0.0
 0441726,-0.00115281,-0.07395377,-0.04150708,0.02592875,0.18258862,-0.3
 1130034,0.07898262,0.02081328,-0.05621516,-0.07158913,0.00078163,-0.03
 989700,0.03899847,0.00439594,0.05610106,0.00083032,-0.00339660,-0.1588
 7888,0.02193813,0.00717124,0.68468230,0.02556210,-0.13079595,-0.005103
 56,-0.01156339,0.02754391,0.00181344,0.01317735,-0.01726035,-0.0015858
 1,-0.02587659,-0.03397779,-0.00015555,0.06110724,-0.25282928,-0.013060
 15,-0.08320233,0.61007493,0.01822506,-0.00873338,-0.06297919,0.0036898
 7,0.00589223,0.00636796,0.00314493,-0.00334040,-0.00338645,-0.00469062
 ,-0.00197022,0.00574557,0.00906929,-0.01039849,-0.07010481,-0.04129684
 ,0.02861075,0.14046418,-0.09079942,0.09600889,0.00783045,0.01352441,-0
 .01768779,-0.00123710,-0.00313732,-0.00343509,0.00043650,-0.00079593,-
 0.00028784,-0.00003023,-0.00488412,-0.00071516,0.00065168,-0.00542535,
 0.02723265,0.00214160,0.09121052,0.09653058,-0.31715590,-0.01979395,0.
 00747658,-0.01635062,-0.00168462,-0.00294133,-0.00166709,-0.00015886,-
 0.00066254,0.00064215,0.00012631,-0.00031674,0.00058632,-0.00020282,0.
 00291990,0.00160670,-0.00044389,-0.10337554,0.33676235,0.00785576,-0.0
 1975865,-0.04551713,-0.00001780,0.00002541,0.00793372,0.00046042,-0.00
 012528,0.00569852,-0.00004840,0.00010085,-0.00102727,0.00067098,-0.000
 17571,0.00516203,0.00096357,-0.00209588,0.00650558,-0.00924328,0.02194
 213,0.03058971,-0.00055543,0.00323353,0.00050908,0.01212713,0.00658035
 ,-0.00011345,-0.17793371,-0.14427384,0.00211300,-0.01318435,-0.0226184
 7,0.00020876,-0.00419525,0.00136956,0.00099669,-0.00066404,0.00084569,
 0.00005593,0.00066240,0.00043787,-0.00001995,0.18637850,0.00295265,-0.
 00472775,-0.00065406,-0.02003507,-0.01659133,0.00027818,-0.14283355,-0
 .23247561,0.00057224,0.00568220,0.01008193,-0.00018909,0.00251072,0.00
 042590,-0.00061007,0.00119342,0.00040693,-0.00003987,-0.00101784,-0.00
 050655,0.00004188,0.15513732,0.24066817,0.00049547,-0.00067312,0.00456
 448,-0.00140292,-0.00153040,0.00578682,0.00218269,0.00067014,-0.044082
 11,0.00158002,0.00173398,0.00599213,0.00105196,-0.00053255,0.00939915,
 0.00007275,-0.00001623,-0.00044958,-0.00009048,-0.00005703,0.00005985,
 -0.00320704,-0.00026510,0.02876943,-0.00138674,-0.00070330,-0.00000808
 ,-0.00473979,-0.00040727,0.00082432,-0.00775603,0.03133690,0.00227563,
 -0.09180245,0.09004892,0.00823722,0.00836058,-0.02078221,-0.00128915,-
 0.00201057,-0.00165597,0.00036158,0.00003466,0.00003418,-0.00000912,0.
 00118088,-0.00026267,-0.00046113,0.09672967,-0.00106722,0.00008042,0.0
 0012506,0.00044911,0.00220653,-0.00029578,0.00071404,-0.00050743,-0.00
 023737,0.08915814,-0.30741831,-0.01926673,0.01126433,-0.01945192,-0.00
 191159,-0.00349857,-0.00127994,-0.00004188,0.00002292,-0.00002067,0.00
 000344,0.00016574,0.00073498,0.00028683,-0.09711350,0.32434431,-0.0000
 2570,0.00010033,-0.00099758,0.00086584,-0.00023763,0.00761179,0.000792
 04,-0.00231824,0.00322456,0.00819400,-0.01932710,-0.03627382,0.0002633
 9,0.00026589,0.00420112,0.00027231,-0.00016711,0.00446492,-0.00000966,
 0.00000268,-0.00012309,-0.00044037,0.00031597,-0.00537299,-0.00965730,
 0.02115706,0.02552732,-0.04998483,-0.01263454,0.00259085,-0.13261236,0
 .00873818,0.00372369,-0.02829979,0.02657967,0.00297369,0.01316898,0.00
 297979,-0.00031669,-0.01491435,0.00353248,0.00110396,0.01356835,-0.008
 20783,-0.00071997,0.00131711,0.00133856,-0.00041229,0.00070819,-0.0036
 4039,-0.00045775,0.00062426,-0.00038521,0.00002399,0.69283227,-0.01457
 638,0.01973955,0.00208482,0.00335261,-0.11656759,-0.00180372,0.0320781
 3,0.00767732,-0.00163866,0.00240625,-0.00835086,-0.00087741,0.00063498
 ,-0.00503127,-0.00022948,-0.00968799,-0.00599524,-0.00005983,-0.001670
 26,-0.00305629,0.00024182,0.00015310,-0.00291213,0.00001480,0.00169316
 ,0.00004574,-0.00017350,0.04669209,0.98316626,0.00249689,0.00195291,-0
 .00292122,0.00346305,-0.00216978,-0.08438103,0.00323993,-0.00126496,-0
 .00377127,-0.00034440,-0.00091637,0.00636288,0.00096366,-0.00042642,-0
 .00127133,-0.00079169,-0.00016041,0.00887168,-0.00055810,0.00003740,-0
 .00566542,-0.00027392,0.00027254,-0.00340049,0.00012469,-0.00003226,0.
 00124194,-0.02778990,0.03232712,0.25402293,-0.00191035,0.00780712,0.00
 073501,-0.05414667,-0.04663900,0.00288050,-0.00078017,-0.00366677,-0.0
 0005320,-0.00248331,-0.00138106,0.00007426,0.00391493,-0.00247048,-0.0
 0037755,-0.00464914,-0.00019291,0.00021484,0.00085521,0.00038017,0.000
 00785,-0.00415350,0.00031136,0.00028303,-0.00018755,0.00013975,0.00001
 775,-0.31248905,-0.20559047,0.00559190,0.33475081,-0.00011898,0.001465
 37,-0.00008274,-0.02972021,0.00118313,0.00103489,0.00847307,-0.0093034
 1,-0.00107748,-0.00309729,0.00171537,0.00031324,0.00307254,-0.00031305
 ,-0.00022973,-0.00006211,0.00232295,0.00018219,0.00180415,0.00086556,-
 0.00011456,0.00130735,0.00325353,0.00007899,-0.00021654,-0.00000389,0.
 00001578,-0.20390928,-0.37463047,-0.00024731,0.26636918,0.50066856,0.0
 0035097,-0.00062132,0.00328585,0.00370017,0.00218450,0.02135747,0.0005
 3507,-0.00025260,0.00100356,-0.00000893,0.00019661,-0.00039584,-0.0001
 0902,0.00014691,0.00013422,0.00022116,0.00019108,-0.00135578,0.0000768
 6,-0.00001780,0.00069364,0.00033129,0.00014666,-0.00022552,0.00000049,
 -0.00000843,-0.00002637,0.00567353,-0.00013290,-0.08397771,-0.00775233
 ,0.00467278,0.03146311,-0.00168341,0.00267554,0.00031493,-0.02629323,0
 .05344512,0.00580671,-0.00484853,-0.00610060,0.00027738,-0.00350566,0.
 00160100,0.00025120,0.00370423,0.00066686,-0.00019952,-0.00153108,0.00
 179988,0.00013861,-0.00362116,0.00248121,0.00036650,0.00022443,0.00022
 279,0.00002134,-0.00086828,0.00011634,0.00002499,-0.19518031,0.1459643
 7,0.01463730,0.04584232,-0.04112646,-0.00315442,0.19077457,-0.01294493
 ,-0.00656267,0.00051108,0.03995902,-0.02443814,-0.00491944,0.00239980,
 0.00213947,-0.00023304,0.00205565,0.00082620,-0.00005359,-0.00361387,0
 .00097989,0.00027887,0.00589607,0.00065441,-0.00033139,0.00138342,0.00
 241371,0.00002281,-0.00136307,0.00147791,0.00014582,0.00035869,-0.0000
 7291,0.00000036,0.14412282,-0.49699789,-0.02981314,-0.01720203,-0.1277
 7939,-0.00641619,-0.16278925,0.64898788,-0.00044201,-0.00055036,0.0010
 4659,0.00515307,-0.00583575,0.02041506,0.00068928,0.00034460,0.0035529
 7,0.00027323,-0.00002274,-0.00096982,-0.00040697,-0.00001197,0.0003191
 1,0.00033711,-0.00005306,-0.00080015,0.00031330,-0.00005179,-0.0000208
 3,-0.00005552,0.00003810,0.00038508,0.00003674,0.00001682,-0.00058507,
 0.01454820,-0.02993847,-0.08630299,-0.00199510,-0.00479040,0.02865232,
 -0.01873598,0.04100172,0.03439801,-0.00222391,-0.00576683,0.00014197,-
 0.01366279,0.01508679,0.00161086,0.01909274,-0.01312629,-0.00163270,-0
 .07195151,-0.01308273,0.00506513,-0.37067326,0.04806203,0.02437894,-0.
 01266583,0.03923742,0.00335538,-0.00013361,-0.00048210,-0.00001019,-0.
 00035829,0.00001886,-0.00000621,0.00201745,0.00129133,-0.00025904,0.01
 379563,-0.00120268,-0.00102693,-0.00413585,-0.00229266,0.00017151,-0.0
 0371014,0.00310072,0.00040276,0.79702701,-0.00890623,-0.00816464,0.000
 01691,0.00433395,0.00535175,-0.00000063,0.00036035,-0.00970750,-0.0007
 0929,-0.03901535,0.01449773,0.00277575,0.05706527,-0.15296772,-0.00905
 260,0.04864142,-0.01114259,-0.00426815,0.00116056,0.00013709,-0.000075
 14,-0.00112473,0.00047301,0.00012180,-0.00097438,0.00228462,0.00030855
 ,-0.00261264,0.00018040,0.00020857,0.00110389,0.00097269,-0.00002900,0
 .00045338,0.00008568,-0.00002696,0.02263773,0.88892508,-0.00001019,-0.
 00019665,0.00396812,0.00108952,-0.00073091,-0.00082290,-0.00097870,0.0
 0020701,0.00450137,0.00380832,0.00101324,0.01171200,0.02481922,-0.0084
 4151,-0.04824845,0.00381120,-0.00362852,0.00830227,0.00006943,0.000036
 47,0.00005746,-0.00006161,0.00004408,-0.00045705,-0.00036889,0.0001544
 8,-0.00268345,-0.00109490,0.00011273,-0.00038015,0.00033598,0.00020172
 ,0.00001004,0.00027440,-0.00020677,-0.00002254,-0.05125729,0.04023704,
 0.03219038,0.00050354,0.00162619,0.00013292,0.00001266,-0.00031232,-0.
 00000980,-0.00013171,-0.00015088,-0.00006299,0.00162475,0.00224346,-0.
 00020850,-0.00861543,0.03722208,0.00213323,-0.00497623,-0.00164194,0.0
 0056931,-0.00037228,-0.00004816,0.00001603,-0.00002068,-0.00001765,0.0
 0001742,-0.00046642,-0.00164140,0.00000112,-0.00015711,0.00002495,0.00
 002395,0.00005545,-0.00007829,-0.00001245,0.00012576,-0.00017121,-0.00
 002027,-0.10455575,0.10022148,0.01187516,0.10146347,-0.00008995,-0.000
 50721,-0.00008148,-0.00127752,0.00136420,0.00014849,0.00172409,-0.0014
 2123,-0.00013988,-0.00492206,0.00145069,0.00055221,0.00655457,-0.00281
 098,-0.00039881,-0.00107331,0.00395423,0.00004292,0.00002164,0.0000518
 8,0.00000598,-0.00005749,0.00000154,-0.00000805,0.00026409,-0.00015110
 ,-0.00006020,0.00130767,-0.00009746,-0.00010220,-0.00040577,-0.0002811
 2,0.00001744,-0.00032010,0.00025765,0.00003668,0.10444528,-0.43491498,
 -0.02811455,-0.11727774,0.44595120,0.00004975,-0.00019802,0.00128751,-
 0.00005645,0.00008284,0.00009882,0.00002776,-0.00001247,-0.00095316,-0
 .00055537,0.00006533,-0.00300085,0.00064525,-0.00248182,-0.00393904,0.
 00059673,0.00008129,0.00453551,0.00001941,0.00001072,-0.00010270,0.000
 01548,-0.00001075,0.00024657,0.00009345,0.00006937,0.00071694,0.000085
 98,-0.00001501,0.00017096,-0.00002828,-0.00000479,-0.00007025,-0.00002
 745,0.00002653,-0.00004722,0.01208136,-0.02783005,-0.00347915,-0.01214
 066,0.02927209,0.00871297,-0.00051291,-0.00039430,-0.00001045,0.000870
 32,-0.00027555,-0.00006584,-0.00097506,-0.00111760,0.00014714,-0.00245
 000,0.00406749,0.00067275,-0.02374999,-0.02630609,0.00015576,0.0012511
 4,-0.00123489,-0.00027257,0.00007747,0.00007305,0.00000115,-0.00029342
 ,0.00014111,-0.00000812,0.00007304,-0.00023446,-0.00006806,-0.00091763
 ,0.00006352,0.00005067,0.00031325,0.00021359,-0.00000921,0.00026397,-0
 .00017349,-0.00002551,-0.24440466,-0.18769726,0.00719208,0.01510504,0.
 01172063,-0.00077653,0.25867076,0.00230355,0.00021620,-0.00012740,0.00
 130185,-0.00420728,-0.00029704,-0.00374374,0.00376517,0.00034055,0.008
 85455,0.00151099,-0.00074878,-0.00758530,0.01876901,0.00155601,-0.0027
 7692,-0.00641413,-0.00003119,0.00042782,0.00022284,-0.00002032,0.00017
 010,-0.00002621,0.00001204,-0.00003983,-0.00000254,0.00003947,-0.00180
 497,0.00020368,0.00014304,0.00034112,0.00017987,-0.00001569,0.00053435
 ,-0.00064090,-0.00006796,-0.18683255,-0.27790633,-0.00052797,-0.015859
 97,-0.00899115,0.00086910,0.20385634,0.27406174,0.00012031,0.00005597,
 -0.00039047,0.00001070,-0.00018999,0.00008782,0.00001971,0.00016215,0.
 00199380,0.00090471,-0.00042344,0.00446738,0.00106059,0.00282811,-0.00
 264924,-0.00034711,-0.00013606,-0.00186103,0.00001834,0.00000379,0.000
 04115,-0.00000672,0.00001402,-0.00051234,-0.00005862,0.00005271,-0.000
 75487,-0.00003998,0.00001609,-0.00021376,-0.00000300,-0.00000700,0.000
 02522,0.00000881,-0.00001988,0.00001069,0.00723643,-0.00046776,-0.0053
 5216,-0.00211321,-0.00100652,-0.00457580,-0.00684941,-0.00119305,0.013
 03548,-0.04201719,-0.03884580,0.00076419,-0.00265040,0.01697257,0.0015
 7355,0.00753257,-0.00505100,-0.00083067,-0.00811318,-0.00088945,0.0009
 8608,0.04888418,-0.00835153,-0.00390407,-0.11444504,-0.00455636,0.0017
 1813,-0.00119206,0.00057895,-0.00021863,-0.00015855,-0.00010027,-0.000
 04733,0.00014202,0.00139463,0.00004752,-0.00287647,-0.00131808,0.00031
 947,0.00107839,0.00037794,-0.00011813,0.00117878,0.00010082,-0.0000904
 9,-0.02771047,-0.00593578,0.00148048,-0.00271703,-0.00305093,0.0000531
 1,-0.00261197,0.02439995,0.00127083,0.84833428,-0.04315043,0.00045555,
 0.00310325,0.01415531,0.01753423,-0.00051951,0.00966496,-0.00884964,-0
 .00103266,-0.00233345,-0.00811816,-0.00057545,-0.00795495,-0.03307450,
 -0.00093513,0.00160471,-0.12757823,-0.00212797,0.00455820,-0.00101381,
 -0.00012526,-0.00001476,-0.00052303,0.00001363,-0.00103512,-0.00036499
 ,0.00006005,-0.00843088,0.00752253,0.00080340,0.00342309,-0.00108337,-
 0.00024005,0.00296299,-0.00494684,-0.00043015,-0.01395011,0.00479583,0
 .00126140,-0.00009553,-0.00168640,-0.00008650,0.00439142,0.00393965,-0
 .00004398,-0.14157805,0.79154787,0.00055531,0.00281053,-0.00297521,0.0
 0143709,-0.00071090,0.00827229,-0.00011765,-0.00003275,-0.00108422,0.0
 0091607,-0.00067360,0.00693677,-0.00388533,-0.00090804,-0.00239716,0.0
 0201687,-0.00170925,-0.08612949,-0.00002576,0.00014520,-0.00481326,-0.
 00004318,0.00001943,-0.00077969,-0.00007020,-0.00010506,-0.00015320,-0
 .00002516,0.00032010,0.00278248,0.00002941,-0.00003314,-0.00093328,0.0
 0004819,-0.00023567,-0.00023958,0.00109299,0.00071729,-0.00172095,0.00
 019609,0.00011419,0.00022811,0.00030126,-0.00140384,-0.00139922,-0.047
 43028,0.03579695,0.25633099,0.00800304,-0.00444369,-0.00051440,-0.0027
 8758,-0.00837950,-0.00029140,-0.00627348,0.00535606,0.00070246,0.00694
 573,0.00316181,-0.00035256,-0.02215818,0.00926338,0.00190620,-0.064800
 91,-0.02209351,0.00474161,0.00211382,0.00080482,-0.00007018,0.00007688
 ,-0.00001756,-0.00000879,0.00015646,-0.00043341,-0.00002682,0.00195146
 ,-0.00073510,-0.00023238,-0.00167864,-0.00046042,0.00010988,-0.0007567
 7,-0.00002383,0.00005640,0.01945627,0.00624357,-0.00083948,0.00212333,
 0.00192613,0.00001590,-0.00100080,-0.01654522,-0.00098460,-0.50601240,
 0.03139058,0.03036857,0.63607433,-0.00104438,-0.00530411,-0.00036049,-
 0.00222728,0.00209443,0.00030613,0.00100887,-0.00100470,-0.00012911,-0
 .00218865,-0.00066843,0.00014041,0.00825787,-0.00040158,-0.00054620,-0
 .02926974,0.01772181,0.00184377,-0.00083679,-0.00026189,0.00001963,0.0
 0005366,0.00005184,0.00000080,-0.00009164,0.00015594,0.00001036,0.0016
 1407,-0.00144448,-0.00013393,-0.00082801,0.00010525,0.00004844,-0.0007
 4231,0.00093381,0.00009132,0.00045321,-0.01877008,-0.00106864,-0.00344
 901,-0.00257424,0.00006207,-0.00636882,-0.00719880,0.00026294,0.013573
 25,-0.13826244,-0.00367094,-0.07908224,0.16754176,-0.00034967,-0.00012
 944,0.00361869,0.00000672,0.00072419,-0.00106572,0.00049184,-0.0004245
 1,0.00019119,-0.00061177,-0.00022317,-0.00046583,0.00185775,-0.0006146
 9,-0.00086522,0.00439374,0.00135593,0.02048945,-0.00014980,-0.00009194
 ,0.00051222,-0.00000534,0.00000564,-0.00003929,-0.00001027,0.00003359,
 0.00007303,-0.00011854,0.00002569,-0.00093479,0.00009208,0.00002347,0.
 00026161,0.00002159,0.00004251,0.00009083,-0.00112058,-0.00146183,0.00
 265009,-0.00024436,-0.00030337,0.00098796,-0.00049148,0.00095448,-0.00
 361144,0.02950535,-0.00488159,-0.08378584,-0.04494079,0.01198154,0.034
 82642,-0.01132214,-0.00589730,0.00058194,0.00439121,0.00031323,-0.0003
 3761,-0.00031793,-0.00153823,-0.00005230,0.00103092,-0.00096898,-0.000
 21507,-0.00932710,0.00059956,0.00095142,0.02185673,-0.00873662,-0.0004
 4614,0.00056566,-0.00522948,-0.00029242,0.00015879,-0.00024542,-0.0000
 1491,-0.00010121,-0.00034257,-0.00001601,-0.00053434,0.00171780,0.0001
 0579,-0.00019615,-0.00053557,-0.00000644,-0.00011548,-0.00109534,-0.00
 003824,0.00479697,0.00404477,-0.00014474,0.00099864,0.00051078,-0.0000
 9946,0.00029146,-0.00700113,-0.00024778,-0.19664546,0.14639202,0.01463
 572,-0.07143255,0.10116795,0.01167353,0.25590199,0.01224319,-0.0002165
 7,-0.00091265,-0.00447744,-0.00537289,0.00008273,-0.00176173,0.0016809
 3,0.00020071,0.00165248,-0.00092270,-0.00008705,-0.00941391,0.00102408
 ,0.00048345,0.00015505,-0.07701238,-0.00478522,-0.00359394,-0.00325579
 ,0.00008684,-0.00000192,0.00018687,0.00000364,-0.00045350,-0.00057883,
 0.00000726,0.00472040,-0.00345181,-0.00047820,-0.00149919,0.00066244,0
 .00012956,-0.00184512,0.00268215,0.00025036,0.00240257,-0.00413004,-0.
 00035267,-0.00059405,0.00040448,0.00010006,-0.00072470,0.00251818,0.00
 009192,0.15227913,-0.50029426,-0.03044052,0.07406813,-0.01271408,-0.00
 701649,-0.22315547,0.59879021,0.00146101,0.00032013,0.00136371,-0.0005
 6975,-0.00024284,-0.00077368,-0.00006314,0.00018554,0.00002231,-0.0000
 8805,0.00009103,-0.00143262,0.00046633,-0.00019695,0.00420601,-0.00001
 530,-0.00418092,0.02131936,-0.00021315,0.00019799,0.00001582,-0.000003
 11,0.00002019,0.00011552,-0.00002139,-0.00000028,-0.00009118,0.0002512
 9,-0.00027418,-0.00023270,-0.00005313,0.00006408,0.00009769,-0.0000745
 7,0.00019942,0.00011755,-0.00022441,-0.00046452,-0.00022491,-0.0001530
 0,0.00002504,-0.00081716,0.00005637,0.00051854,0.00165880,0.01492090,-
 0.03004043,-0.08813955,0.01036038,-0.00885809,0.02706665,-0.02603728,0
 .04263626,0.03572838\\0.00000012,-0.00000072,-0.00000020,-0.00000027,0
 .00000031,0.00000008,-0.00000016,-0.00000006,0.00000024,0.00000002,0.0
 0000002,-0.00000016,0.00000125,-0.00000010,-0.00000039,-0.00000143,-0.
 00000019,0.00000016,0.00000013,-0.00000006,0.00000020,0.00000016,-0.00
 000008,-0.00000003,-0.00000020,-0.00000012,0.00000015,-0.00000066,-0.0
 0000017,-0.00000086,0.00000062,0.00000079,0.00000029,0.,-0.00000038,0.
 00000032,0.00000054,-0.00000003,0.00000041,-0.00000044,0.00000021,-0.0
 0000004,-0.00000058,-0.00000058,-0.00000023,0.00000288,0.00000293,0.00
 000019,-0.00000323,0.00000026,0.00000017,0.00000125,-0.00000204,-0.000
 00028\\\@


 ERWIN WITH HIS PSI CAN DO
 CALCULATIONS QUITE A FEW.
 BUT ONE THING HAS NOT BEEN SEEN
 JUST WHAT DOES PSI REALLY MEAN.
 -- WALTER HUCKEL, TRANS. BY FELIX BLOCH
 Job cpu time:  0 days  9 hours 22 minutes 44.3 seconds.
 File lengths (MBytes):  RWF=    401 Int=      0 D2E=      0 Chk=     18 Scr=      1
 Normal termination of Gaussian 09 at Fri Jan 13 07:29:48 2023.
