 Entering Gaussian System, Link 0=g09
 Initial command:
 /apps/software//g09/l1.exe /scratch/matheusmaximo/65964.cluster.abaxnet/Gau-21478.inp -scrdir=/scratch/matheusmaximo/65964.cluster.abaxnet/
 Entering Link 1 = /apps/software//g09/l1.exe PID=     21479.
  
 Copyright (c) 1988,1990,1992,1993,1995,1998,2003,2009, Gaussian, Inc.
                  All Rights Reserved.
  
 This is part of the Gaussian(R) 09 program.  It is based on
 the Gaussian(R) 03 system (copyright 2003, Gaussian, Inc.),
 the Gaussian(R) 98 system (copyright 1998, Gaussian, Inc.),
 the Gaussian(R) 94 system (copyright 1995, Gaussian, Inc.),
 the Gaussian 92(TM) system (copyright 1992, Gaussian, Inc.),
 the Gaussian 90(TM) system (copyright 1990, Gaussian, Inc.),
 the Gaussian 88(TM) system (copyright 1988, Gaussian, Inc.),
 the Gaussian 86(TM) system (copyright 1986, Carnegie Mellon
 University), and the Gaussian 82(TM) system (copyright 1983,
 Carnegie Mellon University). Gaussian is a federally registered
 trademark of Gaussian, Inc.
  
 This software contains proprietary and confidential information,
 including trade secrets, belonging to Gaussian, Inc.
  
 This software is provided under written license and may be
 used, copied, transmitted, or stored only in accord with that
 written license.
  
 The following legend is applicable only to US Government
 contracts under FAR:
  
                    RESTRICTED RIGHTS LEGEND
  
 Use, reproduction and disclosure by the US Government is
 subject to restrictions as set forth in subparagraphs (a)
 and (c) of the Commercial Computer Software - Restricted
 Rights clause in FAR 52.227-19.
  
 Gaussian, Inc.
 340 Quinnipiac St., Bldg. 40, Wallingford CT 06492
  
  
 ---------------------------------------------------------------
 Warning -- This program may not be used in any manner that
 competes with the business of Gaussian, Inc. or will provide
 assistance to any competitor of Gaussian, Inc.  The licensee
 of this program is prohibited from giving any competitor of
 Gaussian, Inc. access to this program.  By using this program,
 the user acknowledges that Gaussian, Inc. is engaged in the
 business of creating and licensing software in the field of
 computational chemistry and represents and warrants to the
 licensee that it is not a competitor of Gaussian, Inc. and that
 it will not use this program in any manner prohibited above.
 ---------------------------------------------------------------
  

 Cite this work as:
 Gaussian 09, Revision A.02,
 M. J. Frisch, G. W. Trucks, H. B. Schlegel, G. E. Scuseria, 
 M. A. Robb, J. R. Cheeseman, G. Scalmani, V. Barone, B. Mennucci, 
 G. A. Petersson, H. Nakatsuji, M. Caricato, X. Li, H. P. Hratchian, 
 A. F. Izmaylov, J. Bloino, G. Zheng, J. L. Sonnenberg, M. Hada, 
 M. Ehara, K. Toyota, R. Fukuda, J. Hasegawa, M. Ishida, T. Nakajima, 
 Y. Honda, O. Kitao, H. Nakai, T. Vreven, J. A. Montgomery, Jr., 
 J. E. Peralta, F. Ogliaro, M. Bearpark, J. J. Heyd, E. Brothers, 
 K. N. Kudin, V. N. Staroverov, R. Kobayashi, J. Normand, 
 K. Raghavachari, A. Rendell, J. C. Burant, S. S. Iyengar, J. Tomasi, 
 M. Cossi, N. Rega, J. M. Millam, M. Klene, J. E. Knox, J. B. Cross, 
 V. Bakken, C. Adamo, J. Jaramillo, R. Gomperts, R. E. Stratmann, 
 O. Yazyev, A. J. Austin, R. Cammi, C. Pomelli, J. W. Ochterski, 
 R. L. Martin, K. Morokuma, V. G. Zakrzewski, G. A. Voth, 
 P. Salvador, J. J. Dannenberg, S. Dapprich, A. D. Daniels, 
 O. Farkas, J. B. Foresman, J. V. Ortiz, J. Cioslowski, 
 and D. J. Fox, Gaussian, Inc., Wallingford CT, 2009.
 
 ******************************************
 Gaussian 09:  EM64L-G09RevA.02 11-Jun-2009
                15-Feb-2023 
 ******************************************
 %chk=/home/matheusmaximo/Gaussian/substituent/cooh/structure2/cooh_s0.chk
 ---------------------------------------------------
 # opt=tight freq cam-b3lyp/gen scf=qc int=ultrafine
 ---------------------------------------------------
 1/7=10,14=-1,18=20,19=15,26=3,38=1/1,3;
 2/9=110,12=2,17=6,18=5,40=1/2;
 3/5=7,11=2,16=1,25=1,30=1,71=1,74=-40,75=-5/1,2,3;
 4//1;
 5/5=2,8=3,38=5/8;
 6/7=2,8=2,9=2,10=2,28=1/1;
 7//1,2,3,16;
 1/7=10,14=-1,18=20,19=15/3(2);
 2/9=110/2;
 99//99;
 2/9=110/2;
 3/5=7,6=1,11=2,16=1,25=1,30=1,71=1,74=-40,75=-5,82=7/1,2,3;
 4/5=5,16=3/1;
 5/5=2,8=3,38=5/8;
 7//1,2,3,16;
 1/7=10,14=-1,18=20,19=15/3(-5);
 2/9=110/2;
 6/7=2,8=2,9=2,10=2,19=2,28=1/1;
 99/9=1/99;
 ----------------------------
 NA+COOH CAM-B3LYP def2-TZVPD
 ----------------------------
 Symbolic Z-matrix:
 Charge =  0 Multiplicity = 1
 C                    -0.3191   -0.68229  0. 
 C                    -1.41948   0.13511   0.00001 
 C                    -1.27794   1.51943   0.00003 
 C                    -0.02534   2.06242   0.00002 
 C                     1.13332   1.25795  0. 
 C                     0.9651   -0.14754  0. 
 H                    -0.43748  -1.7552   -0.00001 
 H                    -2.15911   2.14316   0.00004 
 H                     0.09365   3.13821   0.00004 
 N                    -2.7535   -0.44881  0. 
 O                    -3.70066   0.31411  -0.00004 
 O                    -2.84677  -1.65879   0.00002 
 N                     2.33607   1.8711   -0.00002 
 H                     2.38172   2.87258   0.00001 
 H                     3.18619   1.33844  -0.00001 
 C                     2.05587  -1.14314  0. 
 O                     3.22618  -0.87849  0. 
 O                     1.64382  -2.43666  0. 
 H                     2.44713  -2.97828  -0.00001 
 

 GradGradGradGradGradGradGradGradGradGradGradGradGradGradGradGradGradGrad
 Berny optimization.
 Initialization pass.
                           ----------------------------
                           !    Initial Parameters    !
                           ! (Angstroms and Degrees)  !
 --------------------------                            --------------------------
 ! Name  Definition              Value          Derivative Info.                !
 --------------------------------------------------------------------------------
 ! R1    R(1,2)                  1.3708         estimate D2E/DX2                !
 ! R2    R(1,6)                  1.3911         estimate D2E/DX2                !
 ! R3    R(1,7)                  1.0794         estimate D2E/DX2                !
 ! R4    R(2,3)                  1.3915         estimate D2E/DX2                !
 ! R5    R(2,10)                 1.4562         estimate D2E/DX2                !
 ! R6    R(3,4)                  1.3652         estimate D2E/DX2                !
 ! R7    R(3,8)                  1.0796         estimate D2E/DX2                !
 ! R8    R(4,5)                  1.4106         estimate D2E/DX2                !
 ! R9    R(4,9)                  1.0824         estimate D2E/DX2                !
 ! R10   R(5,6)                  1.4155         estimate D2E/DX2                !
 ! R11   R(5,13)                 1.35           estimate D2E/DX2                !
 ! R12   R(6,16)                 1.4768         estimate D2E/DX2                !
 ! R13   R(10,11)                1.2162         estimate D2E/DX2                !
 ! R14   R(10,12)                1.2136         estimate D2E/DX2                !
 ! R15   R(13,14)                1.0025         estimate D2E/DX2                !
 ! R16   R(13,15)                1.0032         estimate D2E/DX2                !
 ! R17   R(16,17)                1.1999         estimate D2E/DX2                !
 ! R18   R(16,18)                1.3576         estimate D2E/DX2                !
 ! R19   R(18,19)                0.9688         estimate D2E/DX2                !
 ! A1    A(2,1,6)              120.7867         estimate D2E/DX2                !
 ! A2    A(2,1,7)              120.3102         estimate D2E/DX2                !
 ! A3    A(6,1,7)              118.9031         estimate D2E/DX2                !
 ! A4    A(1,2,3)              120.768          estimate D2E/DX2                !
 ! A5    A(1,2,10)             119.7541         estimate D2E/DX2                !
 ! A6    A(3,2,10)             119.4779         estimate D2E/DX2                !
 ! A7    A(2,3,4)              119.2745         estimate D2E/DX2                !
 ! A8    A(2,3,8)              119.4541         estimate D2E/DX2                !
 ! A9    A(4,3,8)              121.2714         estimate D2E/DX2                !
 ! A10   A(3,4,5)              121.7912         estimate D2E/DX2                !
 ! A11   A(3,4,9)              119.7479         estimate D2E/DX2                !
 ! A12   A(5,4,9)              118.461          estimate D2E/DX2                !
 ! A13   A(4,5,6)              117.9474         estimate D2E/DX2                !
 ! A14   A(4,5,13)             118.2154         estimate D2E/DX2                !
 ! A15   A(6,5,13)             123.8373         estimate D2E/DX2                !
 ! A16   A(1,6,5)              119.4323         estimate D2E/DX2                !
 ! A17   A(1,6,16)             115.0045         estimate D2E/DX2                !
 ! A18   A(5,6,16)             125.5632         estimate D2E/DX2                !
 ! A19   A(2,10,11)            117.5093         estimate D2E/DX2                !
 ! A20   A(2,10,12)            118.0473         estimate D2E/DX2                !
 ! A21   A(11,10,12)           124.4434         estimate D2E/DX2                !
 ! A22   A(5,13,14)            119.6214         estimate D2E/DX2                !
 ! A23   A(5,13,15)            120.9177         estimate D2E/DX2                !
 ! A24   A(14,13,15)           119.4609         estimate D2E/DX2                !
 ! A25   A(6,16,17)            124.8696         estimate D2E/DX2                !
 ! A26   A(6,16,18)            114.7195         estimate D2E/DX2                !
 ! A27   A(17,16,18)           120.4109         estimate D2E/DX2                !
 ! A28   A(16,18,19)           106.3205         estimate D2E/DX2                !
 ! D1    D(6,1,2,3)             -0.0004         estimate D2E/DX2                !
 ! D2    D(6,1,2,10)           179.9996         estimate D2E/DX2                !
 ! D3    D(7,1,2,3)            179.9991         estimate D2E/DX2                !
 ! D4    D(7,1,2,10)            -0.0009         estimate D2E/DX2                !
 ! D5    D(2,1,6,5)             -0.0005         estimate D2E/DX2                !
 ! D6    D(2,1,6,16)           179.9994         estimate D2E/DX2                !
 ! D7    D(7,1,6,5)            180.0            estimate D2E/DX2                !
 ! D8    D(7,1,6,16)            -0.0001         estimate D2E/DX2                !
 ! D9    D(1,2,3,4)              0.0006         estimate D2E/DX2                !
 ! D10   D(1,2,3,8)           -179.9995         estimate D2E/DX2                !
 ! D11   D(10,2,3,4)          -179.9994         estimate D2E/DX2                !
 ! D12   D(10,2,3,8)             0.0004         estimate D2E/DX2                !
 ! D13   D(1,2,10,11)         -179.9977         estimate D2E/DX2                !
 ! D14   D(1,2,10,12)            0.0022         estimate D2E/DX2                !
 ! D15   D(3,2,10,11)            0.0024         estimate D2E/DX2                !
 ! D16   D(3,2,10,12)         -179.9977         estimate D2E/DX2                !
 ! D17   D(2,3,4,5)              0.0001         estimate D2E/DX2                !
 ! D18   D(2,3,4,9)           -179.9998         estimate D2E/DX2                !
 ! D19   D(8,3,4,5)           -179.9998         estimate D2E/DX2                !
 ! D20   D(8,3,4,9)              0.0003         estimate D2E/DX2                !
 ! D21   D(3,4,5,6)             -0.001          estimate D2E/DX2                !
 ! D22   D(3,4,5,13)           179.999          estimate D2E/DX2                !
 ! D23   D(9,4,5,6)            179.9989         estimate D2E/DX2                !
 ! D24   D(9,4,5,13)            -0.0011         estimate D2E/DX2                !
 ! D25   D(4,5,6,1)              0.0012         estimate D2E/DX2                !
 ! D26   D(4,5,6,16)          -179.9987         estimate D2E/DX2                !
 ! D27   D(13,5,6,1)          -179.9988         estimate D2E/DX2                !
 ! D28   D(13,5,6,16)            0.0013         estimate D2E/DX2                !
 ! D29   D(4,5,13,14)            0.0019         estimate D2E/DX2                !
 ! D30   D(4,5,13,15)          179.9979         estimate D2E/DX2                !
 ! D31   D(6,5,13,14)         -179.9981         estimate D2E/DX2                !
 ! D32   D(6,5,13,15)           -0.0021         estimate D2E/DX2                !
 ! D33   D(1,6,16,17)         -180.0            estimate D2E/DX2                !
 ! D34   D(1,6,16,18)            0.0001         estimate D2E/DX2                !
 ! D35   D(5,6,16,17)           -0.0001         estimate D2E/DX2                !
 ! D36   D(5,6,16,18)         -180.0            estimate D2E/DX2                !
 ! D37   D(6,16,18,19)         179.9994         estimate D2E/DX2                !
 ! D38   D(17,16,18,19)         -0.0005         estimate D2E/DX2                !
 --------------------------------------------------------------------------------
 Trust Radius=3.00D-01 FncErr=1.00D-07 GrdErr=1.00D-06
 Number of steps in this run=  95 maximum allowed number of steps= 114.
 GradGradGradGradGradGradGradGradGradGradGradGradGradGradGradGradGradGrad

                          Input orientation:                          
 ---------------------------------------------------------------------
 Center     Atomic      Atomic             Coordinates (Angstroms)
 Number     Number       Type             X           Y           Z
 ---------------------------------------------------------------------
      1          6           0       -0.319104   -0.682286   -0.000005
      2          6           0       -1.419483    0.135112    0.000005
      3          6           0       -1.277938    1.519427    0.000025
      4          6           0       -0.025340    2.062418    0.000022
      5          6           0        1.133321    1.257950   -0.000003
      6          6           0        0.965101   -0.147536   -0.000004
      7          1           0       -0.437479   -1.755196   -0.000005
      8          1           0       -2.159113    2.143156    0.000041
      9          1           0        0.093649    3.138213    0.000041
     10          7           0       -2.753505   -0.448809   -0.000004
     11          8           0       -3.700660    0.314114   -0.000038
     12          8           0       -2.846770   -1.658789    0.000021
     13          7           0        2.336075    1.871103   -0.000025
     14          1           0        2.381715    2.872581    0.000006
     15          1           0        3.186188    1.338444   -0.000011
     16          6           0        2.055866   -1.143136   -0.000001
     17          8           0        3.226178   -0.878494    0.000000
     18          8           0        1.643823   -2.436658   -0.000003
     19          1           0        2.447134   -2.978283   -0.000011
 ---------------------------------------------------------------------
                    Distance matrix (angstroms):
                    1          2          3          4          5
     1  C    0.000000
     2  C    1.370756   0.000000
     3  C    2.401438   1.391533   0.000000
     4  C    2.760380   2.378685   1.365225   0.000000
     5  C    2.423646   2.788831   2.425395   1.410554   0.000000
     6  C    1.391094   2.401277   2.794636   2.421749   1.415518
     7  H    1.079420   2.130163   3.380758   3.839795   3.398009
     8  H    3.371759   2.139929   1.079587   2.135301   3.409357
     9  H    3.842731   3.362765   2.121725   1.082356   2.148560
    10  N    2.445571   1.456220   2.459930   3.707984   4.245050
    11  O    3.525299   2.288189   2.705987   4.069956   4.925262
    12  O    2.709732   2.292428   3.544333   4.669887   4.934419
    13  N    3.683717   4.137376   3.631083   2.369152   1.350027
    14  H    4.464472   4.684319   3.901805   2.539740   2.040960
    15  H    4.046038   4.760274   4.467792   3.292119   2.054444
    16  C    2.419270   3.702967   4.266555   3.821909   2.572218
    17  O    3.550708   4.754952   5.102655   4.384214   2.990726
    18  O    2.632661   3.999730   4.918058   4.798727   3.729711
    19  H    3.594951   4.964268   5.839996   5.614427   4.435288
                    6          7          8          9         10
     6  C    0.000000
     7  H    2.133495   0.000000
     8  H    3.874014   4.261592   0.000000
     9  H    3.399350   4.922149   2.462738   0.000000
    10  N    3.730790   2.659064   2.659245   4.579630   0.000000
    11  O    4.688544   3.863986   2.392020   4.729939   1.216205
    12  O    4.100518   2.411219   3.863633   5.626482   1.213569
    13  N    2.440179   4.565375   4.503413   2.575663   5.593372
    14  H    3.335851   5.418872   4.599042   2.303434   6.115727
    15  H    2.672333   4.764616   5.405535   3.578123   6.202759
    16  C    1.476817   2.567369   5.344695   4.709591   4.859232
    17  O    2.376293   3.767093   6.175090   5.093788   5.995101
    18  O    2.387623   2.190025   5.952900   5.786383   4.825768
    19  H    3.195239   3.133199   6.888153   6.553657   5.783155
                   11         12         13         14         15
    11  O    0.000000
    12  O    2.149761   0.000000
    13  N    6.234291   6.270727   0.000000
    14  H    6.598564   6.918842   1.002517   0.000000
    15  H    6.962609   6.736466   1.003204   1.732268   0.000000
    16  C    5.938111   4.929678   3.027236   4.028916   2.726879
    17  O    7.028755   6.122871   2.890081   3.844955   2.217298
    18  O    6.010844   4.557466   4.363029   5.360271   4.078024
    19  H    6.973897   5.455866   4.850658   5.851230   4.379536
                   16         17         18         19
    16  C    0.000000
    17  O    1.199861   0.000000
    18  O    1.357563   2.220748   0.000000
    19  H    1.876394   2.239649   0.968848   0.000000
 Stoichiometry    C7H6N2O4
 Framework group  C1[X(C7H6N2O4)]
 Deg. of freedom    51
 Full point group                 C1      NOp   1
 Largest Abelian subgroup         C1      NOp   1
 Largest concise Abelian subgroup C1      NOp   1
                         Standard orientation:                         
 ---------------------------------------------------------------------
 Center     Atomic      Atomic             Coordinates (Angstroms)
 Number     Number       Type             X           Y           Z
 ---------------------------------------------------------------------
      1          6           0       -0.262297   -0.639181   -0.000004
      2          6           0       -1.378648    0.156263    0.000006
      3          6           0       -1.264547    1.543111    0.000026
      4          6           0       -0.022948    2.110802    0.000023
      5          6           0        1.151418    1.329440   -0.000003
      6          6           0        1.011066   -0.079102   -0.000003
      7          1           0       -0.359399   -1.714225   -0.000004
      8          1           0       -2.157903    2.149266    0.000042
      9          1           0        0.074711    3.188743    0.000042
     10          7           0       -2.700844   -0.453963   -0.000003
     11          8           0       -3.662923    0.290052   -0.000037
     12          8           0       -2.770127   -1.665553    0.000022
     13          7           0        2.341792    1.966293   -0.000024
     14          1           0        2.367589    2.968478    0.000007
     15          1           0        3.202287    1.450574   -0.000011
     16          6           0        2.121334   -1.052905    0.000000
     17          8           0        3.286176   -0.765137    0.000000
     18          8           0        1.734990   -2.354333   -0.000002
     19          1           0        2.548871   -2.879943   -0.000010
 ---------------------------------------------------------------------
 Rotational constants (GHZ):      1.4051214      0.5682560      0.4046204
 General basis read from cards:  (5D, 7F)
 There are   547 symmetry adapted basis functions of A   symmetry.
 Integral buffers will be    131072 words long.
 Raffenetti 2 integral format.
 Two-electron integral symmetry is turned on.
   547 basis functions,   832 primitive gaussians,   625 cartesian basis functions
    47 alpha electrons       47 beta electrons
       nuclear repulsion energy       773.2208078345 Hartrees.
 NAtoms=   19 NActive=   19 NUniq=   19 SFac= 7.50D-01 NAtFMM=   80 NAOKFM=F Big=F
 One-electron integrals computed using PRISM.
 NBasis=   547 RedAO= T  NBF=   547
 NBsUse=   544 1.00D-06 NBFU=   544
 Harris functional with IExCor=20419 diagonalized for initial guess.
 ExpMin= 4.85D-02 ExpMax= 2.70D+04 ExpMxC= 9.22D+02 IAcc=3 IRadAn=         5 AccDes= 0.00D+00
 HarFok:  IExCor=20419 AccDes= 0.00D+00 IRadAn=         5 IDoV= 1
 ScaDFX=  1.000000  1.000000  1.000000  1.000000
 FoFCou: FMM=F IPFlag=           0 FMFlag=      100000 FMFlg1=           0
         NFxFlg=           0 DoJE=T BraDBF=F KetDBF=T FulRan=T
         Omega=  0.000000  0.000000  1.000000  0.000000  0.000000 ICntrl=     500 IOpCl=  0
         NMat0=    1 NMatS0=    1 NMatT0=    0 NMatD0=    1 NMtDS0=    0 NMtDT0=    0
         I1Cent=           4 NGrid=           0.
 Petite list used in FoFCou.
 Initial guess orbital symmetries:
       Occupied  (A) (A) (A) (A) (A) (A) (A) (A) (A) (A) (A) (A)
                 (A) (A) (A) (A) (A) (A) (A) (A) (A) (A) (A) (A)
                 (A) (A) (A) (A) (A) (A) (A) (A) (A) (A) (A) (A)
                 (A) (A) (A) (A) (A) (A) (A) (A) (A) (A) (A)
       Virtual   (A) (A) (A) (A) (A) (A) (A) (A) (A) (A) (A) (A)
                 (A) (A) (A) (A) (A) (A) (A) (A) (A) (A) (A) (A)
                 (A) (A) (A) (A) (A) (A) (A) (A) (A) (A) (A) (A)
                 (A) (A) (A) (A) (A) (A) (A) (A) (A) (A) (A) (A)
                 (A) (A) (A) (A) (A) (A) (A) (A) (A) (A) (A) (A)
                 (A) (A) (A) (A) (A) (A) (A) (A) (A) (A) (A) (A)
                 (A) (A) (A) (A) (A) (A) (A) (A) (A) (A) (A) (A)
                 (A) (A) (A) (A) (A) (A) (A) (A) (A) (A) (A) (A)
                 (A) (A) (A) (A) (A) (A) (A) (A) (A) (A) (A) (A)
                 (A) (A) (A) (A) (A) (A) (A) (A) (A) (A) (A) (A)
                 (A) (A) (A) (A) (A) (A) (A) (A) (A) (A) (A) (A)
                 (A) (A) (A) (A) (A) (A) (A) (A) (A) (A) (A) (A)
                 (A) (A) (A) (A) (A) (A) (A) (A) (A) (A) (A) (A)
                 (A) (A) (A) (A) (A) (A) (A) (A) (A) (A) (A) (A)
                 (A) (A) (A) (A) (A) (A) (A) (A) (A) (A) (A) (A)
                 (A) (A) (A) (A) (A) (A) (A) (A) (A) (A) (A) (A)
                 (A) (A) (A) (A) (A) (A) (A) (A) (A) (A) (A) (A)
                 (A) (A) (A) (A) (A) (A) (A) (A) (A) (A) (A) (A)
                 (A) (A) (A) (A) (A) (A) (A) (A) (A) (A) (A) (A)
                 (A) (A) (A) (A) (A) (A) (A) (A) (A) (A) (A) (A)
                 (A) (A) (A) (A) (A) (A) (A) (A) (A) (A) (A) (A)
                 (A) (A) (A) (A) (A) (A) (A) (A) (A) (A) (A) (A)
                 (A) (A) (A) (A) (A) (A) (A) (A) (A) (A) (A) (A)
                 (A) (A) (A) (A) (A) (A) (A) (A) (A) (A) (A) (A)
                 (A) (A) (A) (A) (A) (A) (A) (A) (A) (A) (A) (A)
                 (A) (A) (A) (A) (A) (A) (A) (A) (A) (A) (A) (A)
                 (A) (A) (A) (A) (A) (A) (A) (A) (A) (A) (A) (A)
                 (A) (A) (A) (A) (A) (A) (A) (A) (A) (A) (A) (A)
                 (A) (A) (A) (A) (A) (A) (A) (A) (A) (A) (A) (A)
                 (A) (A) (A) (A) (A) (A) (A) (A) (A) (A) (A) (A)
                 (A) (A) (A) (A) (A) (A) (A) (A) (A) (A) (A) (A)
                 (A) (A) (A) (A) (A) (A) (A) (A) (A) (A) (A) (A)
                 (A) (A) (A) (A) (A) (A) (A) (A) (A) (A) (A) (A)
                 (A) (A) (A) (A) (A) (A) (A) (A) (A) (A) (A) (A)
                 (A) (A) (A) (A) (A) (A) (A) (A) (A) (A) (A) (A)
                 (A) (A) (A) (A) (A) (A) (A) (A) (A) (A) (A) (A)
                 (A) (A) (A) (A) (A) (A) (A) (A) (A) (A) (A) (A)
                 (A) (A) (A) (A) (A) (A) (A) (A) (A) (A) (A) (A)
                 (A) (A) (A) (A) (A) (A) (A) (A) (A) (A) (A) (A)
                 (A) (A) (A) (A) (A) (A) (A) (A) (A) (A) (A) (A)
                 (A) (A) (A) (A) (A) (A) (A) (A) (A) (A) (A) (A)
                 (A) (A) (A) (A) (A)
 The electronic state of the initial guess is 1-A.
 FoFJK:  IHMeth= 1 ICntrl=     0 DoSepK=T KAlg= 1 I1Cent= 0 FoldK=F
 Gradient too large for Newton-Raphson -- use scaled steepest descent instead.
 FoFJK:  IHMeth= 1 ICntrl=     0 DoSepK=T KAlg= 1 I1Cent= 0 FoldK=F
 FoFJK:  IHMeth= 1 ICntrl=     0 DoSepK=T KAlg= 1 I1Cent= 0 FoldK=F
 FoFJK:  IHMeth= 1 ICntrl=     0 DoSepK=T KAlg= 1 I1Cent= 0 FoldK=F
 FoFJK:  IHMeth= 1 ICntrl=     0 DoSepK=T KAlg= 1 I1Cent= 0 FoldK=F
 Gradient too large for Newton-Raphson -- use scaled steepest descent instead.
 FoFJK:  IHMeth= 1 ICntrl=     0 DoSepK=T KAlg= 1 I1Cent= 0 FoldK=F
 FoFJK:  IHMeth= 1 ICntrl=     0 DoSepK=T KAlg= 1 I1Cent= 0 FoldK=F
 FoFJK:  IHMeth= 1 ICntrl=     0 DoSepK=T KAlg= 1 I1Cent= 0 FoldK=F
 FoFJK:  IHMeth= 1 ICntrl=     0 DoSepK=T KAlg= 1 I1Cent= 0 FoldK=F
 Gradient too large for Newton-Raphson -- use scaled steepest descent instead.
 FoFJK:  IHMeth= 1 ICntrl=     0 DoSepK=T KAlg= 1 I1Cent= 0 FoldK=F
 FoFJK:  IHMeth= 1 ICntrl=     0 DoSepK=T KAlg= 1 I1Cent= 0 FoldK=F
 FoFJK:  IHMeth= 1 ICntrl=     0 DoSepK=T KAlg= 1 I1Cent= 0 FoldK=F
 Gradient too large for Newton-Raphson -- use scaled steepest descent instead.
 FoFJK:  IHMeth= 1 ICntrl=     0 DoSepK=T KAlg= 1 I1Cent= 0 FoldK=F
 FoFJK:  IHMeth= 1 ICntrl=     0 DoSepK=T KAlg= 1 I1Cent= 0 FoldK=F
 FoFJK:  IHMeth= 1 ICntrl=     0 DoSepK=T KAlg= 1 I1Cent= 0 FoldK=F
 FoFJK:  IHMeth= 1 ICntrl=     0 DoSepK=T KAlg= 1 I1Cent= 0 FoldK=F
 Gradient too large for Newton-Raphson -- use scaled steepest descent instead.
 FoFJK:  IHMeth= 1 ICntrl=     0 DoSepK=T KAlg= 1 I1Cent= 0 FoldK=F
 FoFJK:  IHMeth= 1 ICntrl=     0 DoSepK=T KAlg= 1 I1Cent= 0 FoldK=F
 FoFJK:  IHMeth= 1 ICntrl=     0 DoSepK=T KAlg= 1 I1Cent= 0 FoldK=F
 Gradient too large for Newton-Raphson -- use scaled steepest descent instead.
 FoFJK:  IHMeth= 1 ICntrl=     0 DoSepK=T KAlg= 1 I1Cent= 0 FoldK=F
 FoFJK:  IHMeth= 1 ICntrl=     0 DoSepK=T KAlg= 1 I1Cent= 0 FoldK=F
 FoFJK:  IHMeth= 1 ICntrl=     0 DoSepK=T KAlg= 1 I1Cent= 0 FoldK=F
 FoFJK:  IHMeth= 1 ICntrl=     0 DoSepK=T KAlg= 1 I1Cent= 0 FoldK=F
 LinEq1:  Iter=  0 NonCon=     1 RMS=4.27D-05 Max=2.33D-03
 AX will form     1 AO Fock derivatives at one time.
 FoFJK:  IHMeth= 1 ICntrl=     0 DoSepK=T KAlg= 1 I1Cent= 0 FoldK=F
 LinEq1:  Iter=  1 NonCon=     1 RMS=4.38D-05 Max=4.28D-03
 FoFJK:  IHMeth= 1 ICntrl=     0 DoSepK=T KAlg= 1 I1Cent= 0 FoldK=F
 LinEq1:  Iter=  2 NonCon=     1 RMS=9.89D-06 Max=8.53D-04
 FoFJK:  IHMeth= 1 ICntrl=     0 DoSepK=T KAlg= 1 I1Cent= 0 FoldK=F
 LinEq1:  Iter=  3 NonCon=     1 RMS=7.97D-06 Max=3.74D-04
 FoFJK:  IHMeth= 1 ICntrl=     0 DoSepK=T KAlg= 1 I1Cent= 0 FoldK=F
 LinEq1:  Iter=  4 NonCon=     1 RMS=2.37D-06 Max=1.14D-04
 FoFJK:  IHMeth= 1 ICntrl=     0 DoSepK=T KAlg= 1 I1Cent= 0 FoldK=F
 LinEq1:  Iter=  5 NonCon=     1 RMS=1.65D-06 Max=8.48D-05
 FoFJK:  IHMeth= 1 ICntrl=     0 DoSepK=T KAlg= 1 I1Cent= 0 FoldK=F
 LinEq1:  Iter=  6 NonCon=     1 RMS=4.73D-07 Max=2.23D-05
 FoFJK:  IHMeth= 1 ICntrl=     0 DoSepK=T KAlg= 1 I1Cent= 0 FoldK=F
 LinEq1:  Iter=  7 NonCon=     1 RMS=2.80D-07 Max=1.23D-05
 FoFJK:  IHMeth= 1 ICntrl=     0 DoSepK=T KAlg= 1 I1Cent= 0 FoldK=F
 LinEq1:  Iter=  8 NonCon=     1 RMS=9.22D-08 Max=4.19D-06
 FoFJK:  IHMeth= 1 ICntrl=     0 DoSepK=T KAlg= 1 I1Cent= 0 FoldK=F
 LinEq1:  Iter=  9 NonCon=     1 RMS=4.14D-08 Max=2.49D-06
 FoFJK:  IHMeth= 1 ICntrl=     0 DoSepK=T KAlg= 1 I1Cent= 0 FoldK=F
 LinEq1:  Iter= 10 NonCon=     1 RMS=1.91D-08 Max=1.37D-06
 FoFJK:  IHMeth= 1 ICntrl=     0 DoSepK=T KAlg= 1 I1Cent= 0 FoldK=F
 LinEq1:  Iter= 11 NonCon=     1 RMS=9.74D-09 Max=5.30D-07
 FoFJK:  IHMeth= 1 ICntrl=     0 DoSepK=T KAlg= 1 I1Cent= 0 FoldK=F
 LinEq1:  Iter= 12 NonCon=     0 RMS=2.24D-09 Max=7.85D-08
 Linear equations converged to 2.161D-08 2.161D-07 after    12 iterations.
 FoFJK:  IHMeth= 1 ICntrl=     0 DoSepK=T KAlg= 1 I1Cent= 0 FoldK=F
 FoFJK:  IHMeth= 1 ICntrl=     0 DoSepK=T KAlg= 1 I1Cent= 0 FoldK=F
 FoFJK:  IHMeth= 1 ICntrl=     0 DoSepK=T KAlg= 1 I1Cent= 0 FoldK=F
 LinEq1:  Iter=  0 NonCon=     1 RMS=1.69D-07 Max=9.06D-06
 FoFJK:  IHMeth= 1 ICntrl=     0 DoSepK=T KAlg= 1 I1Cent= 0 FoldK=F
 LinEq1:  Iter=  1 NonCon=     1 RMS=7.98D-08 Max=5.16D-06
 FoFJK:  IHMeth= 1 ICntrl=     0 DoSepK=T KAlg= 1 I1Cent= 0 FoldK=F
 LinEq1:  Iter=  2 NonCon=     1 RMS=2.61D-08 Max=1.14D-06
 FoFJK:  IHMeth= 1 ICntrl=     0 DoSepK=T KAlg= 1 I1Cent= 0 FoldK=F
 LinEq1:  Iter=  3 NonCon=     1 RMS=1.50D-08 Max=5.31D-07
 FoFJK:  IHMeth= 1 ICntrl=     0 DoSepK=T KAlg= 1 I1Cent= 0 FoldK=F
 LinEq1:  Iter=  4 NonCon=     1 RMS=8.72D-09 Max=3.91D-07
 FoFJK:  IHMeth= 1 ICntrl=     0 DoSepK=T KAlg= 1 I1Cent= 0 FoldK=F
 LinEq1:  Iter=  5 NonCon=     1 RMS=4.22D-09 Max=2.95D-07
 FoFJK:  IHMeth= 1 ICntrl=     0 DoSepK=T KAlg= 1 I1Cent= 0 FoldK=F
 LinEq1:  Iter=  6 NonCon=     1 RMS=2.51D-09 Max=1.18D-07
 FoFJK:  IHMeth= 1 ICntrl=     0 DoSepK=T KAlg= 1 I1Cent= 0 FoldK=F
 LinEq1:  Iter=  7 NonCon=     1 RMS=1.90D-09 Max=1.13D-07
 FoFJK:  IHMeth= 1 ICntrl=     0 DoSepK=T KAlg= 1 I1Cent= 0 FoldK=F
 LinEq1:  Iter=  8 NonCon=     1 RMS=1.22D-09 Max=8.03D-08
 FoFJK:  IHMeth= 1 ICntrl=     0 DoSepK=T KAlg= 1 I1Cent= 0 FoldK=F
 LinEq1:  Iter=  9 NonCon=     1 RMS=6.35D-10 Max=3.10D-08
 FoFJK:  IHMeth= 1 ICntrl=     0 DoSepK=T KAlg= 1 I1Cent= 0 FoldK=F
 LinEq1:  Iter= 10 NonCon=     1 RMS=4.00D-10 Max=2.10D-08
 FoFJK:  IHMeth= 1 ICntrl=     0 DoSepK=T KAlg= 1 I1Cent= 0 FoldK=F
 LinEq1:  Iter= 11 NonCon=     1 RMS=2.04D-10 Max=7.28D-09
 FoFJK:  IHMeth= 1 ICntrl=     0 DoSepK=T KAlg= 1 I1Cent= 0 FoldK=F
 LinEq1:  Iter= 12 NonCon=     1 RMS=1.25D-10 Max=5.41D-09
 FoFJK:  IHMeth= 1 ICntrl=     0 DoSepK=T KAlg= 1 I1Cent= 0 FoldK=F
 LinEq1:  Iter= 13 NonCon=     0 RMS=5.06D-11 Max=2.01D-09
 Linear equations converged to 2.922D-10 2.922D-09 after    13 iterations.
 FoFJK:  IHMeth= 1 ICntrl=     0 DoSepK=T KAlg= 1 I1Cent= 0 FoldK=F
 SCF Done:  E(RCAM-B3LYP) =  -680.689298804     a.u. after    9 cycles
            Convg  =    0.6286D-08                    52 Fock formations.
              S**2 =  0.0000                  -V/T =  2.0038

 **********************************************************************

            Population analysis using the SCF density.

 **********************************************************************

 Orbital symmetries:
       Occupied  (A) (A) (A) (A) (A) (A) (A) (A) (A) (A) (A) (A)
                 (A) (A) (A) (A) (A) (A) (A) (A) (A) (A) (A) (A)
                 (A) (A) (A) (A) (A) (A) (A) (A) (A) (A) (A) (A)
                 (A) (A) (A) (A) (A) (A) (A) (A) (A) (A) (A)
       Virtual   (A) (A) (A) (A) (A) (A) (A) (A) (A) (A) (A) (A)
                 (A) (A) (A) (A) (A) (A) (A) (A) (A) (A) (A) (A)
                 (A) (A) (A) (A) (A) (A) (A) (A) (A) (A) (A) (A)
                 (A) (A) (A) (A) (A) (A) (A) (A) (A) (A) (A) (A)
                 (A) (A) (A) (A) (A) (A) (A) (A) (A) (A) (A) (A)
                 (A) (A) (A) (A) (A) (A) (A) (A) (A) (A) (A) (A)
                 (A) (A) (A) (A) (A) (A) (A) (A) (A) (A) (A) (A)
                 (A) (A) (A) (A) (A) (A) (A) (A) (A) (A) (A) (A)
                 (A) (A) (A) (A) (A) (A) (A) (A) (A) (A) (A) (A)
                 (A) (A) (A) (A) (A) (A) (A) (A) (A) (A) (A) (A)
                 (A) (A) (A) (A) (A) (A) (A) (A) (A) (A) (A) (A)
                 (A) (A) (A) (A) (A) (A) (A) (A) (A) (A) (A) (A)
                 (A) (A) (A) (A) (A) (A) (A) (A) (A) (A) (A) (A)
                 (A) (A) (A) (A) (A) (A) (A) (A) (A) (A) (A) (A)
                 (A) (A) (A) (A) (A) (A) (A) (A) (A) (A) (A) (A)
                 (A) (A) (A) (A) (A) (A) (A) (A) (A) (A) (A) (A)
                 (A) (A) (A) (A) (A) (A) (A) (A) (A) (A) (A) (A)
                 (A) (A) (A) (A) (A) (A) (A) (A) (A) (A) (A) (A)
                 (A) (A) (A) (A) (A) (A) (A) (A) (A) (A) (A) (A)
                 (A) (A) (A) (A) (A) (A) (A) (A) (A) (A) (A) (A)
                 (A) (A) (A) (A) (A) (A) (A) (A) (A) (A) (A) (A)
                 (A) (A) (A) (A) (A) (A) (A) (A) (A) (A) (A) (A)
                 (A) (A) (A) (A) (A) (A) (A) (A) (A) (A) (A) (A)
                 (A) (A) (A) (A) (A) (A) (A) (A) (A) (A) (A) (A)
                 (A) (A) (A) (A) (A) (A) (A) (A) (A) (A) (A) (A)
                 (A) (A) (A) (A) (A) (A) (A) (A) (A) (A) (A) (A)
                 (A) (A) (A) (A) (A) (A) (A) (A) (A) (A) (A) (A)
                 (A) (A) (A) (A) (A) (A) (A) (A) (A) (A) (A) (A)
                 (A) (A) (A) (A) (A) (A) (A) (A) (A) (A) (A) (A)
                 (A) (A) (A) (A) (A) (A) (A) (A) (A) (A) (A) (A)
                 (A) (A) (A) (A) (A) (A) (A) (A) (A) (A) (A) (A)
                 (A) (A) (A) (A) (A) (A) (A) (A) (A) (A) (A) (A)
                 (A) (A) (A) (A) (A) (A) (A) (A) (A) (A) (A) (A)
                 (A) (A) (A) (A) (A) (A) (A) (A) (A) (A) (A) (A)
                 (A) (A) (A) (A) (A) (A) (A) (A) (A) (A) (A) (A)
                 (A) (A) (A) (A) (A) (A) (A) (A) (A) (A) (A) (A)
                 (A) (A) (A) (A) (A) (A) (A) (A) (A) (A) (A) (A)
                 (A) (A) (A) (A) (A) (A) (A) (A) (A) (A) (A) (A)
                 (A) (A) (A) (A) (A) (A) (A) (A) (A) (A) (A) (A)
                 (A) (A) (A) (A) (A) (A) (A) (A) (A) (A) (A) (A)
                 (A) (A) (A) (A) (A) (A) (A) (A) (A) (A) (A) (A)
                 (A) (A) (A) (A) (A)
 The electronic state is 1-A.
 Alpha  occ. eigenvalues --  -19.26413 -19.23092 -19.23069 -19.21016 -14.63310
 Alpha  occ. eigenvalues --  -14.43278 -10.40621 -10.34468 -10.30686 -10.28954
 Alpha  occ. eigenvalues --  -10.28946 -10.28781 -10.27739  -1.32384  -1.21573
 Alpha  occ. eigenvalues --   -1.14387  -1.12302  -1.05196  -0.98047  -0.89612
 Alpha  occ. eigenvalues --   -0.88061  -0.78293  -0.76674  -0.72890  -0.67404
 Alpha  occ. eigenvalues --   -0.64783  -0.63119  -0.62215  -0.62062  -0.59992
 Alpha  occ. eigenvalues --   -0.58385  -0.57773  -0.55493  -0.54008  -0.53294
 Alpha  occ. eigenvalues --   -0.51248  -0.49647  -0.48518  -0.45812  -0.42524
 Alpha  occ. eigenvalues --   -0.41415  -0.38633  -0.38172  -0.37187  -0.36703
 Alpha  occ. eigenvalues --   -0.35267  -0.29931
 Alpha virt. eigenvalues --   -0.04434  -0.02791   0.01353   0.02440   0.03298
 Alpha virt. eigenvalues --    0.03993   0.04910   0.06419   0.06917   0.07101
 Alpha virt. eigenvalues --    0.08766   0.08847   0.09548   0.10162   0.10546
 Alpha virt. eigenvalues --    0.11068   0.11186   0.12773   0.13083   0.14231
 Alpha virt. eigenvalues --    0.14770   0.14934   0.15545   0.16313   0.16852
 Alpha virt. eigenvalues --    0.17608   0.18834   0.18941   0.19099   0.19163
 Alpha virt. eigenvalues --    0.20607   0.21016   0.21902   0.22053   0.22304
 Alpha virt. eigenvalues --    0.22980   0.23893   0.24230   0.24494   0.24904
 Alpha virt. eigenvalues --    0.25295   0.25861   0.25917   0.26501   0.27453
 Alpha virt. eigenvalues --    0.27932   0.28539   0.28664   0.29360   0.29776
 Alpha virt. eigenvalues --    0.30457   0.30653   0.30667   0.30991   0.32183
 Alpha virt. eigenvalues --    0.32455   0.32830   0.33555   0.33734   0.34622
 Alpha virt. eigenvalues --    0.34921   0.35324   0.35899   0.36438   0.37085
 Alpha virt. eigenvalues --    0.37906   0.38221   0.38358   0.38908   0.39328
 Alpha virt. eigenvalues --    0.40016   0.40561   0.41449   0.41676   0.42546
 Alpha virt. eigenvalues --    0.42936   0.43287   0.43743   0.44325   0.45089
 Alpha virt. eigenvalues --    0.45135   0.45687   0.46583   0.46966   0.47422
 Alpha virt. eigenvalues --    0.48009   0.48486   0.48911   0.49217   0.49336
 Alpha virt. eigenvalues --    0.50011   0.50741   0.51718   0.52431   0.53068
 Alpha virt. eigenvalues --    0.53560   0.54359   0.54659   0.55395   0.55981
 Alpha virt. eigenvalues --    0.57057   0.57592   0.58396   0.59267   0.59330
 Alpha virt. eigenvalues --    0.60361   0.60486   0.61091   0.61500   0.62339
 Alpha virt. eigenvalues --    0.62431   0.62447   0.62664   0.63533   0.63864
 Alpha virt. eigenvalues --    0.64412   0.64887   0.65041   0.66088   0.66373
 Alpha virt. eigenvalues --    0.66804   0.67370   0.67720   0.69006   0.69775
 Alpha virt. eigenvalues --    0.70222   0.70481   0.71969   0.72217   0.72462
 Alpha virt. eigenvalues --    0.72840   0.73590   0.74207   0.74843   0.75389
 Alpha virt. eigenvalues --    0.75955   0.76394   0.76774   0.77347   0.78606
 Alpha virt. eigenvalues --    0.78712   0.79192   0.80044   0.80291   0.80671
 Alpha virt. eigenvalues --    0.81198   0.82259   0.82727   0.83655   0.83878
 Alpha virt. eigenvalues --    0.84132   0.85011   0.85975   0.86778   0.88143
 Alpha virt. eigenvalues --    0.88561   0.88941   0.89029   0.90284   0.91430
 Alpha virt. eigenvalues --    0.93305   0.93904   0.94559   0.97301   0.97680
 Alpha virt. eigenvalues --    0.97847   0.98614   0.99097   1.01111   1.01602
 Alpha virt. eigenvalues --    1.01954   1.02229   1.03407   1.03836   1.04651
 Alpha virt. eigenvalues --    1.04954   1.06369   1.06700   1.07781   1.08357
 Alpha virt. eigenvalues --    1.09926   1.12082   1.12500   1.14895   1.16652
 Alpha virt. eigenvalues --    1.17566   1.18041   1.18233   1.19416   1.21058
 Alpha virt. eigenvalues --    1.21482   1.24983   1.25843   1.26091   1.26592
 Alpha virt. eigenvalues --    1.30579   1.30999   1.32025   1.33777   1.33828
 Alpha virt. eigenvalues --    1.34784   1.36918   1.37824   1.40055   1.40498
 Alpha virt. eigenvalues --    1.42431   1.43147   1.44250   1.45929   1.47124
 Alpha virt. eigenvalues --    1.47660   1.49311   1.51112   1.52899   1.55895
 Alpha virt. eigenvalues --    1.57503   1.58800   1.60570   1.61326   1.64864
 Alpha virt. eigenvalues --    1.66531   1.67564   1.69319   1.71227   1.72518
 Alpha virt. eigenvalues --    1.73050   1.73255   1.74195   1.76959   1.79104
 Alpha virt. eigenvalues --    1.79692   1.79758   1.80656   1.82657   1.84330
 Alpha virt. eigenvalues --    1.86026   1.87176   1.88608   1.89146   1.91028
 Alpha virt. eigenvalues --    1.91451   1.92641   1.94819   1.95734   1.96922
 Alpha virt. eigenvalues --    1.99389   1.99556   1.99595   2.01814   2.02961
 Alpha virt. eigenvalues --    2.03457   2.05827   2.07916   2.10362   2.10792
 Alpha virt. eigenvalues --    2.11437   2.15055   2.15220   2.19628   2.20187
 Alpha virt. eigenvalues --    2.22476   2.22941   2.24922   2.26799   2.27942
 Alpha virt. eigenvalues --    2.29079   2.31878   2.32154   2.33999   2.34387
 Alpha virt. eigenvalues --    2.35276   2.37283   2.37474   2.38404   2.42084
 Alpha virt. eigenvalues --    2.43151   2.43249   2.44800   2.46928   2.47316
 Alpha virt. eigenvalues --    2.48553   2.53741   2.55144   2.57638   2.59465
 Alpha virt. eigenvalues --    2.60811   2.63776   2.65568   2.68119   2.70188
 Alpha virt. eigenvalues --    2.70954   2.72971   2.76334   2.77674   2.80438
 Alpha virt. eigenvalues --    2.81097   2.83547   2.83690   2.86726   2.87948
 Alpha virt. eigenvalues --    2.88627   2.89076   2.89571   2.91110   2.92469
 Alpha virt. eigenvalues --    2.93251   2.94099   2.95889   2.96033   2.97285
 Alpha virt. eigenvalues --    3.01280   3.01726   3.02558   3.03916   3.06947
 Alpha virt. eigenvalues --    3.08191   3.11109   3.12132   3.13787   3.14867
 Alpha virt. eigenvalues --    3.15916   3.16310   3.18467   3.19288   3.21661
 Alpha virt. eigenvalues --    3.22796   3.22886   3.25153   3.26000   3.26507
 Alpha virt. eigenvalues --    3.28351   3.30658   3.31596   3.31706   3.35092
 Alpha virt. eigenvalues --    3.36183   3.37211   3.38556   3.39856   3.41476
 Alpha virt. eigenvalues --    3.42855   3.45572   3.45726   3.46216   3.47049
 Alpha virt. eigenvalues --    3.49161   3.49785   3.51589   3.52220   3.52470
 Alpha virt. eigenvalues --    3.54891   3.54967   3.57344   3.58878   3.60339
 Alpha virt. eigenvalues --    3.60842   3.61825   3.62180   3.62841   3.67341
 Alpha virt. eigenvalues --    3.67352   3.69706   3.71460   3.72435   3.72684
 Alpha virt. eigenvalues --    3.75849   3.77808   3.79509   3.82396   3.88296
 Alpha virt. eigenvalues --    3.88413   3.89800   3.90914   3.96803   3.98191
 Alpha virt. eigenvalues --    4.02847   4.09265   4.11727   4.14427   4.14660
 Alpha virt. eigenvalues --    4.15293   4.15702   4.18221   4.22371   4.24713
 Alpha virt. eigenvalues --    4.25051   4.25845   4.29940   4.31563   4.32752
 Alpha virt. eigenvalues --    4.34729   4.37312   4.39370   4.41340   4.43767
 Alpha virt. eigenvalues --    4.46933   4.48872   4.52306   4.61089   4.66279
 Alpha virt. eigenvalues --    4.71510   4.75464   4.76740   4.77047   4.79503
 Alpha virt. eigenvalues --    4.79600   4.81630   4.82378   4.87855   4.89340
 Alpha virt. eigenvalues --    4.91182   4.93196   4.95715   4.96017   4.98577
 Alpha virt. eigenvalues --    5.01465   5.04307   5.06981   5.14578   5.18788
 Alpha virt. eigenvalues --    5.19767   5.20923   5.21086   5.23051   5.24062
 Alpha virt. eigenvalues --    5.25903   5.27064   5.28656   5.29696   5.35241
 Alpha virt. eigenvalues --    5.38046   5.41845   5.42827   5.44663   5.46908
 Alpha virt. eigenvalues --    5.47841   5.50354   5.57142   5.57532   5.61062
 Alpha virt. eigenvalues --    5.61439   5.67043   5.68912   5.72194   5.75816
 Alpha virt. eigenvalues --    5.76667   5.79760   5.81206   5.94383   5.96663
 Alpha virt. eigenvalues --    5.98809   6.04774   6.12131   6.15568   6.25058
 Alpha virt. eigenvalues --    6.27112   6.45169   6.46476   6.49298   6.52194
 Alpha virt. eigenvalues --    6.53466   6.55513   6.60090   6.61566   6.62384
 Alpha virt. eigenvalues --    6.64504   6.72155   6.79276   6.90080   6.93189
 Alpha virt. eigenvalues --    6.95441   6.96280   6.99464   6.99562   7.14058
 Alpha virt. eigenvalues --    7.23118   7.32241   7.33713   7.35108   7.47315
 Alpha virt. eigenvalues --    7.55086   7.58614   7.79861   7.83981  22.74753
 Alpha virt. eigenvalues --   22.98595  23.03272  23.15414  23.23271  23.50566
 Alpha virt. eigenvalues --   23.69474  32.52141  32.89467  44.27636  44.40450
 Alpha virt. eigenvalues --   44.49827  44.69230
          Condensed to atoms (all electrons):
              1          2          3          4          5          6
     1  C    6.210424   0.356751  -0.186827  -0.020286   0.147755   0.357368
     2  C    0.356751   6.271824   0.228064  -0.195866  -0.028373  -0.336773
     3  C   -0.186827   0.228064   6.362146   0.119733  -0.376382   0.052509
     4  C   -0.020286  -0.195866   0.119733   7.161077  -0.280155  -0.684618
     5  C    0.147755  -0.028373  -0.376382  -0.280155   6.696970   0.024719
     6  C    0.357368  -0.336773   0.052509  -0.684618   0.024719   7.427435
     7  H    0.157491  -0.007084   0.001047   0.003535   0.018723  -0.061049
     8  H    0.002000  -0.100534   0.305010  -0.045932   0.013159  -0.004677
     9  H   -0.004783   0.013056  -0.030759   0.473482  -0.279398   0.004892
    10  N   -0.170547   0.501483  -0.241110   0.010668   0.015104  -0.013093
    11  O    0.018027  -0.098830   0.042119   0.001006  -0.004397  -0.009001
    12  O    0.008815  -0.061187   0.026481  -0.003746  -0.010360   0.010384
    13  N   -0.007403   0.003610  -0.011528  -0.047999   0.088711  -0.041654
    14  H    0.001123   0.000344   0.000700   0.050779  -0.087819   0.000289
    15  H    0.003534  -0.001409  -0.002315  -0.039576   0.035069  -0.023617
    16  C   -0.662861  -0.147718   0.051945   0.069446  -0.483303  -0.706644
    17  O    0.013876  -0.001471  -0.003964   0.000215   0.003349   0.104980
    18  O   -0.063918   0.005149  -0.002224  -0.005896  -0.016117   0.031864
    19  H    0.016605  -0.001492   0.000130   0.000312   0.000814   0.002554
              7          8          9         10         11         12
     1  C    0.157491   0.002000  -0.004783  -0.170547   0.018027   0.008815
     2  C   -0.007084  -0.100534   0.013056   0.501483  -0.098830  -0.061187
     3  C    0.001047   0.305010  -0.030759  -0.241110   0.042119   0.026481
     4  C    0.003535  -0.045932   0.473482   0.010668   0.001006  -0.003746
     5  C    0.018723   0.013159  -0.279398   0.015104  -0.004397  -0.010360
     6  C   -0.061049  -0.004677   0.004892  -0.013093  -0.009001   0.010384
     7  H    0.352519  -0.000181  -0.000554   0.006501  -0.005144  -0.017603
     8  H   -0.000181   0.384034  -0.008487   0.006579  -0.005145  -0.002556
     9  H   -0.000554  -0.008487   0.519445  -0.000045   0.000499  -0.000016
    10  N    0.006501   0.006579  -0.000045   5.804304   0.073003   0.095089
    11  O   -0.005144  -0.005145   0.000499   0.073003   8.695466  -0.109956
    12  O   -0.017603  -0.002556  -0.000016   0.095089  -0.109956   8.656430
    13  N   -0.000891  -0.000410   0.021551  -0.000274   0.000124   0.000099
    14  H    0.000107  -0.000289   0.016189  -0.000029   0.000011   0.000009
    15  H   -0.000887   0.000129  -0.005199   0.000042   0.000015   0.000014
    16  C   -0.034334  -0.001231   0.002502  -0.006339   0.001970  -0.005826
    17  O    0.002902  -0.000012  -0.000168   0.000013  -0.000029   0.000064
    18  O    0.007708  -0.000005   0.000024  -0.000830  -0.000013  -0.002814
    19  H   -0.005715   0.000000  -0.000002   0.000063  -0.000003   0.000360
             13         14         15         16         17         18
     1  C   -0.007403   0.001123   0.003534  -0.662861   0.013876  -0.063918
     2  C    0.003610   0.000344  -0.001409  -0.147718  -0.001471   0.005149
     3  C   -0.011528   0.000700  -0.002315   0.051945  -0.003964  -0.002224
     4  C   -0.047999   0.050779  -0.039576   0.069446   0.000215  -0.005896
     5  C    0.088711  -0.087819   0.035069  -0.483303   0.003349  -0.016117
     6  C   -0.041654   0.000289  -0.023617  -0.706644   0.104980   0.031864
     7  H   -0.000891   0.000107  -0.000887  -0.034334   0.002902   0.007708
     8  H   -0.000410  -0.000289   0.000129  -0.001231  -0.000012  -0.000005
     9  H    0.021551   0.016189  -0.005199   0.002502  -0.000168   0.000024
    10  N   -0.000274  -0.000029   0.000042  -0.006339   0.000013  -0.000830
    11  O    0.000124   0.000011   0.000015   0.001970  -0.000029  -0.000013
    12  O    0.000099   0.000009   0.000014  -0.005826   0.000064  -0.002814
    13  N    6.434600   0.434764   0.403613   0.042209  -0.015687  -0.000481
    14  H    0.434764   0.522623  -0.074013   0.000516   0.000248  -0.000173
    15  H    0.403613  -0.074013   0.485309  -0.038123   0.046704   0.001704
    16  C    0.042209   0.000516  -0.038123   7.040099   0.031554   0.160593
    17  O   -0.015687   0.000248   0.046704   0.031554   8.485434  -0.091628
    18  O   -0.000481  -0.000173   0.001704   0.160593  -0.091628   8.266690
    19  H   -0.000145   0.000020   0.000584   0.050817  -0.013533   0.115852
             19
     1  C    0.016605
     2  C   -0.001492
     3  C    0.000130
     4  C    0.000312
     5  C    0.000814
     6  C    0.002554
     7  H   -0.005715
     8  H    0.000000
     9  H   -0.000002
    10  N    0.000063
    11  O   -0.000003
    12  O    0.000360
    13  N   -0.000145
    14  H    0.000020
    15  H    0.000584
    16  C    0.050817
    17  O   -0.013533
    18  O    0.115852
    19  H    0.503041
 Mulliken atomic charges:
              1
     1  C   -0.177145
     2  C   -0.399546
     3  C   -0.334775
     4  C   -0.566181
     5  C    0.521930
     6  C   -0.135867
     7  H    0.582908
     8  H    0.458547
     9  H    0.277772
    10  N    0.919417
    11  O   -0.599721
    12  O   -0.583682
    13  N   -0.302810
    14  H    0.134601
    15  H    0.208421
    16  C    0.634728
    17  O   -0.562846
    18  O   -0.405483
    19  H    0.329735
 Sum of Mulliken atomic charges =   0.00000
 Mulliken charges with hydrogens summed into heavy atoms:
              1
     1  C    0.405762
     2  C   -0.399546
     3  C    0.123772
     4  C   -0.288409
     5  C    0.521930
     6  C   -0.135867
    10  N    0.919417
    11  O   -0.599721
    12  O   -0.583682
    13  N    0.040211
    16  C    0.634728
    17  O   -0.562846
    18  O   -0.075748
 Sum of Mulliken charges with hydrogens summed into heavy atoms =   0.00000
 Electronic spatial extent (au):  <R**2>=           2512.5917
 Charge=              0.0000 electrons
 Dipole moment (field-independent basis, Debye):
    X=              4.5402    Y=              3.1636    Z=              0.0001  Tot=              5.5337
 Quadrupole moment (field-independent basis, Debye-Ang):
   XX=            -90.2153   YY=            -60.7150   ZZ=            -75.0698
   XY=             -2.7041   XZ=             -0.0001   YZ=              0.0004
 Traceless Quadrupole moment (field-independent basis, Debye-Ang):
   XX=            -14.8819   YY=             14.6183   ZZ=              0.2636
   XY=             -2.7041   XZ=             -0.0001   YZ=              0.0004
 Octapole moment (field-independent basis, Debye-Ang**2):
  XXX=             57.9554  YYY=              8.6024  ZZZ=             -0.0001  XYY=             43.2621
  XXY=             15.1478  XXZ=              0.0009  XZZ=             -4.3651  YZZ=             -9.4784
  YYZ=              0.0004  XYZ=              0.0001
 Hexadecapole moment (field-independent basis, Debye-Ang**3):
 XXXX=          -2417.3414 YYYY=           -774.2670 ZZZZ=            -75.6220 XXXY=             -0.3776
 XXXZ=             -0.0020 YYYX=            -44.7821 YYYZ=              0.0023 ZZZX=              0.0009
 ZZZY=             -0.0005 XXYY=           -418.9543 XXZZ=           -357.4481 YYZZ=           -184.0225
 XXYZ=              0.0022 YYXZ=              0.0007 ZZXY=             -3.4459
 N-N= 7.732208078345D+02 E-N=-3.140288201025D+03  KE= 6.780907735772D+02
 Calling FoFJK, ICntrl=      2127 FMM=F ISym2X=0 I1Cent= 0 IOpClX= 0 NMat=1 NMatS=1 NMatT=0.
 FoFJK:  IHMeth= 1 ICntrl=  2127 DoSepK=T KAlg= 1 I1Cent= 0 FoldK=F
 ***** Axes restored to original set *****
 -------------------------------------------------------------------
 Center     Atomic                   Forces (Hartrees/Bohr)
 Number     Number              X              Y              Z
 -------------------------------------------------------------------
      1        6          -0.003390105    0.002533814    0.000000936
      2        6          -0.001587746    0.000277724   -0.000000063
      3        6          -0.000232868   -0.000510229   -0.000000515
      4        6           0.000096619   -0.000798955   -0.000000027
      5        6           0.004180896    0.000379002    0.000000628
      6        6          -0.008233130   -0.014506705   -0.000000113
      7        1          -0.002297198    0.002232578   -0.000000322
      8        1           0.000004228   -0.000002864   -0.000000001
      9        1           0.000195382   -0.000102841   -0.000000281
     10        7           0.000368599    0.001270478   -0.000000010
     11        8          -0.000089345   -0.000335800    0.000000260
     12        8          -0.000122139   -0.000770949   -0.000000090
     13        7          -0.001090412   -0.005068547    0.000000327
     14        1           0.000571641   -0.000017755   -0.000000026
     15        1           0.001565016   -0.003779870   -0.000000038
     16        6          -0.005306516    0.001258551   -0.000001157
     17        8           0.014396871    0.007817535    0.000000241
     18        8           0.001664912    0.009080618    0.000000042
     19        1          -0.000694706    0.001044215    0.000000209
 -------------------------------------------------------------------
 Cartesian Forces:  Max     0.014506705 RMS     0.003649053

 GradGradGradGradGradGradGradGradGradGradGradGradGradGradGradGradGradGrad
 Berny optimization.
 Internal  Forces:  Max     0.032898230 RMS     0.006003438
 Search for a local minimum.
 Step number   1 out of a maximum of   95
 All quantities printed in internal units (Hartrees-Bohrs-Radians)
 Mixed Optimization -- RFO/linear search
 Second derivative matrix not updated -- first step.
     Eigenvalues ---    0.00948   0.00948   0.01073   0.01440   0.01737
     Eigenvalues ---    0.01893   0.01970   0.02093   0.02220   0.02253
     Eigenvalues ---    0.02276   0.02320   0.02353   0.02353   0.02368
     Eigenvalues ---    0.02417   0.16000   0.16000   0.16000   0.16000
     Eigenvalues ---    0.16000   0.16000   0.22360   0.23491   0.24601
     Eigenvalues ---    0.25000   0.25000   0.25000   0.25000   0.25000
     Eigenvalues ---    0.25000   0.25000   0.34937   0.35711   0.36044
     Eigenvalues ---    0.36065   0.37442   0.41051   0.42109   0.45274
     Eigenvalues ---    0.46443   0.47129   0.47248   0.49551   0.51070
     Eigenvalues ---    0.53443   0.53613   0.55016   0.97085   0.98290
     Eigenvalues ---    1.048931000.000001000.000001000.000001000.00000
     Eigenvalues --- 1000.000001000.000001000.000001000.000001000.00000
     Eigenvalues --- 1000.000001000.000001000.000001000.000001000.00000
     Eigenvalues --- 1000.000001000.000001000.000001000.000001000.00000
     Eigenvalues --- 1000.000001000.000001000.000001000.000001000.00000
     Eigenvalues --- 1000.000001000.000001000.000001000.000001000.00000
     Eigenvalues --- 1000.000001000.000001000.000001000.000001000.00000
 RFO step:  Lambda=-1.06143920D-02 EMin= 9.48093184D-03
 Linear search not attempted -- first point.
 Iteration  1 RMS(Cart)=  0.11667197 RMS(Int)=  0.00354392
 Iteration  2 RMS(Cart)=  0.00657834 RMS(Int)=  0.00000457
 Iteration  3 RMS(Cart)=  0.00001291 RMS(Int)=  0.00000165
 Iteration  4 RMS(Cart)=  0.00000000 RMS(Int)=  0.00000165
 Variable       Old X    -DE/DX   Delta X   Delta X   Delta X     New X
                                 (Linear)    (Quad)   (Total)
    R1        2.59035   0.00179   0.00000   0.00402   0.00402   2.59437
    R2        2.62879   0.00378   0.00000   0.00782   0.00783   2.63661
    R3        2.03981  -0.00197   0.00000  -0.00530  -0.00530   2.03451
    R4        2.62962   0.00117   0.00000   0.00309   0.00308   2.63270
    R5        2.75186  -0.00021   0.00000  -0.00054  -0.00054   2.75131
    R6        2.57990   0.00121   0.00000   0.00232   0.00232   2.58222
    R7        2.04012  -0.00001   0.00000  -0.00001  -0.00001   2.04011
    R8        2.66556  -0.00120   0.00000  -0.00331  -0.00331   2.66225
    R9        2.04536  -0.00008   0.00000  -0.00022  -0.00022   2.04514
   R10        2.67494  -0.01038   0.00000  -0.02419  -0.02418   2.65076
   R11        2.55118  -0.00309   0.00000  -0.00552  -0.00552   2.54566
   R12        2.79078  -0.00551   0.00000  -0.01532  -0.01532   2.77546
   R13        2.29829  -0.00014   0.00000  -0.00014  -0.00014   2.29815
   R14        2.29331   0.00078   0.00000   0.00078   0.00078   2.29410
   R15        1.89448   0.00001   0.00000   0.00002   0.00002   1.89450
   R16        1.89578   0.00333   0.00000   0.00692   0.00692   1.90270
   R17        2.26741   0.01577   0.00000   0.01488   0.01488   2.28229
   R18        2.56542  -0.00994   0.00000  -0.01824  -0.01824   2.54718
   R19        1.83086  -0.00116   0.00000  -0.00212  -0.00212   1.82874
    A1        2.10813  -0.00294   0.00000  -0.01113  -0.01113   2.09699
    A2        2.09981  -0.00111   0.00000  -0.00955  -0.00955   2.09026
    A3        2.07525   0.00405   0.00000   0.02068   0.02068   2.09593
    A4        2.10780  -0.00022   0.00000   0.00181   0.00181   2.10961
    A5        2.09010  -0.00006   0.00000  -0.00157  -0.00156   2.08854
    A6        2.08528   0.00028   0.00000  -0.00025  -0.00025   2.08504
    A7        2.08173   0.00012   0.00000   0.00234   0.00233   2.08407
    A8        2.08487  -0.00006   0.00000  -0.00117  -0.00116   2.08370
    A9        2.11659  -0.00006   0.00000  -0.00117  -0.00117   2.11542
   A10        2.12566  -0.00194   0.00000  -0.00917  -0.00918   2.11648
   A11        2.08999   0.00118   0.00000   0.00582   0.00582   2.09582
   A12        2.06753   0.00076   0.00000   0.00335   0.00335   2.07089
   A13        2.05857   0.00314   0.00000   0.01000   0.01001   2.06858
   A14        2.06325   0.01191   0.00000   0.04670   0.04669   2.10994
   A15        2.16137  -0.01504   0.00000  -0.05670  -0.05670   2.10466
   A16        2.08449   0.00184   0.00000   0.00615   0.00616   2.09064
   A17        2.00721   0.03105   0.00000   0.11962   0.11962   2.12682
   A18        2.19149  -0.03290   0.00000  -0.12577  -0.12577   2.06572
   A19        2.05092   0.00044   0.00000   0.00168   0.00168   2.05260
   A20        2.06031  -0.00015   0.00000  -0.00056  -0.00056   2.05975
   A21        2.17195  -0.00029   0.00000  -0.00112  -0.00112   2.17083
   A22        2.08779   0.00222   0.00000   0.01302   0.01302   2.10081
   A23        2.11041  -0.00336   0.00000  -0.01969  -0.01969   2.09072
   A24        2.08499   0.00114   0.00000   0.00667   0.00667   2.09165
   A25        2.17939  -0.00518   0.00000  -0.01987  -0.01987   2.15951
   A26        2.00223   0.00027   0.00000   0.00103   0.00103   2.00327
   A27        2.10157   0.00491   0.00000   0.01884   0.01884   2.12040
   A28        1.85564  -0.00087   0.00000  -0.00512  -0.00512   1.85052
    D1       -0.00001   0.00000   0.00000   0.00000   0.00000  -0.00001
    D2        3.14159   0.00000   0.00000   0.00000   0.00000   3.14159
    D3        3.14158   0.00000   0.00000   0.00001   0.00001   3.14159
    D4       -0.00002   0.00000   0.00000   0.00001   0.00001  -0.00001
    D5       -0.00001   0.00000   0.00000   0.00001   0.00001   0.00000
    D6        3.14158   0.00000   0.00000   0.00001   0.00001   3.14159
    D7        3.14159   0.00000   0.00000   0.00000   0.00000  -3.14159
    D8        0.00000   0.00000   0.00000   0.00000   0.00000   0.00000
    D9        0.00001   0.00000   0.00000  -0.00001  -0.00001   0.00000
   D10       -3.14158   0.00000   0.00000   0.00000   0.00000  -3.14159
   D11       -3.14158   0.00000   0.00000  -0.00001  -0.00001  -3.14159
   D12        0.00001   0.00000   0.00000   0.00000   0.00000   0.00001
   D13       -3.14155   0.00000   0.00000  -0.00001  -0.00001  -3.14156
   D14        0.00004   0.00000   0.00000   0.00000   0.00000   0.00003
   D15        0.00004   0.00000   0.00000  -0.00001  -0.00001   0.00003
   D16       -3.14155   0.00000   0.00000  -0.00001  -0.00001  -3.14156
   D17        0.00000   0.00000   0.00000   0.00000   0.00000   0.00000
   D18       -3.14159   0.00000   0.00000   0.00000   0.00000  -3.14159
   D19       -3.14159   0.00000   0.00000   0.00000   0.00000  -3.14159
   D20        0.00001   0.00000   0.00000   0.00000   0.00000   0.00000
   D21       -0.00002   0.00000   0.00000   0.00001   0.00001  -0.00001
   D22        3.14158   0.00000   0.00000   0.00000   0.00000   3.14158
   D23        3.14157   0.00000   0.00000   0.00001   0.00001   3.14158
   D24       -0.00002   0.00000   0.00000   0.00001   0.00001  -0.00001
   D25        0.00002   0.00000   0.00000  -0.00001  -0.00001   0.00001
   D26       -3.14157   0.00000   0.00000  -0.00001  -0.00001  -3.14158
   D27       -3.14157   0.00000   0.00000  -0.00001  -0.00001  -3.14158
   D28        0.00002   0.00000   0.00000  -0.00001  -0.00001   0.00001
   D29        0.00003   0.00000   0.00000   0.00000   0.00000   0.00004
   D30        3.14156   0.00000   0.00000   0.00000   0.00000   3.14156
   D31       -3.14156   0.00000   0.00000   0.00000   0.00000  -3.14156
   D32       -0.00004   0.00000   0.00000   0.00000   0.00000  -0.00004
   D33        3.14159   0.00000   0.00000   0.00001   0.00001  -3.14159
   D34        0.00000   0.00000   0.00000  -0.00001  -0.00001  -0.00001
   D35        0.00000   0.00000   0.00000   0.00001   0.00001   0.00000
   D36       -3.14159   0.00000   0.00000  -0.00001  -0.00001   3.14158
   D37        3.14158   0.00000   0.00000   0.00001   0.00001  -3.14159
   D38       -0.00001   0.00000   0.00000   0.00000   0.00000  -0.00001
         Item               Value     Threshold  Converged?
 Maximum Force            0.032898     0.000015     NO 
 RMS     Force            0.006003     0.000010     NO 
 Maximum Displacement     0.447882     0.000060     NO 
 RMS     Displacement     0.119416     0.000040     NO 
 Predicted change in Energy=-5.516413D-03
 GradGradGradGradGradGradGradGradGradGradGradGradGradGradGradGradGradGrad

                          Input orientation:                          
 ---------------------------------------------------------------------
 Center     Atomic      Atomic             Coordinates (Angstroms)
 Number     Number       Type             X           Y           Z
 ---------------------------------------------------------------------
      1          6           0       -0.386889   -0.704340   -0.000004
      2          6           0       -1.468786    0.140824    0.000005
      3          6           0       -1.295991    1.523232    0.000018
      4          6           0       -0.031585    2.041374    0.000018
      5          6           0        1.101605    1.204349   -0.000001
      6          6           0        0.908072   -0.184957   -0.000006
      7          1           0       -0.541065   -1.769859   -0.000008
      8          1           0       -2.163682    2.165575    0.000030
      9          1           0        0.115256    3.113606    0.000032
     10          7           0       -2.815452   -0.412555    0.000000
     11          8           0       -3.746304    0.370058   -0.000023
     12          8           0       -2.935518   -1.620587    0.000024
     13          7           0        2.344743    1.723294   -0.000017
     14          1           0        2.479232    2.716759    0.000016
     15          1           0        3.142979    1.109622   -0.000001
     16          6           0        2.091940   -1.054192   -0.000011
     17          8           0        3.226972   -0.641485   -0.000006
     18          8           0        1.823012   -2.375003   -0.000006
     19          1           0        2.681116   -2.822385   -0.000008
 ---------------------------------------------------------------------
                    Distance matrix (angstroms):
                    1          2          3          4          5
     1  C    0.000000
     2  C    1.372881   0.000000
     3  C    2.405939   1.393166   0.000000
     4  C    2.768607   2.382779   1.366452   0.000000
     5  C    2.420476   2.781725   2.418708   1.408804   0.000000
     6  C    1.395235   2.399080   2.788512   2.416506   1.402721
     7  H    1.076616   2.124000   3.378515   3.845135   3.397687
     8  H    3.375412   2.140677   1.079580   2.135711   3.403829
     9  H    3.850825   3.368474   2.126242   1.082240   2.148987
    10  N    2.446029   1.455932   2.460901   3.711022   4.237654
    11  O    3.527039   2.289026   2.708107   4.073381   4.919173
    12  O    2.708324   2.292132   3.545652   4.673626   4.927334
    13  N    3.654479   4.128827   3.646226   2.397521   1.347107
    14  H    4.463022   4.714052   3.959396   2.600067   2.045786
    15  H    3.968681   4.712425   4.458198   3.308477   2.043571
    16  C    2.503395   3.755906   4.256899   3.753916   2.466125
    17  O    3.614408   4.760478   5.014299   4.220892   2.815012
    18  O    2.770339   4.143105   4.992436   4.789981   3.651328
    19  H    3.728105   5.099244   5.890820   5.569102   4.325441
                    6          7          8          9         10
     6  C    0.000000
     7  H    2.147536   0.000000
     8  H    3.867903   4.256821   0.000000
     9  H    3.392503   4.927371   2.468262   0.000000
    10  N    3.730473   2.648605   2.659240   4.585069   0.000000
    11  O    4.687351   3.853933   2.393444   4.736950   1.216129
    12  O    4.102952   2.399101   3.864033   5.632033   1.213984
    13  N    2.388607   4.531005   4.530067   2.627466   5.584752
    14  H    3.299772   5.408506   4.675517   2.397055   6.150308
    15  H    2.582779   4.675852   5.410701   3.630849   6.149791
    16  C    1.468711   2.728533   5.336405   4.612789   4.949161
    17  O    2.363412   3.933362   6.077725   4.876832   6.046759
    18  O    2.373482   2.440299   6.042398   5.748153   5.036522
    19  H    3.178004   3.389728   6.953546   6.466810   6.001628
                   11         12         13         14         15
    11  O    0.000000
    12  O    2.149428   0.000000
    13  N    6.239559   6.250015   0.000000
    14  H    6.653142   6.937729   1.002526   0.000000
    15  H    6.928866   6.663495   1.006864   1.738806   0.000000
    16  C    6.009458   5.059262   2.788967   3.790786   2.405572
    17  O    7.046262   6.239786   2.523987   3.440482   1.753120
    18  O    6.209077   4.817961   4.131373   5.133874   3.726249
    19  H    7.176588   5.743770   4.558108   5.542821   3.959040
                   16         17         18         19
    16  C    0.000000
    17  O    1.207736   0.000000
    18  O    1.347911   2.230737   0.000000
    19  H    1.863769   2.248173   0.967725   0.000000
 Stoichiometry    C7H6N2O4
 Framework group  C1[X(C7H6N2O4)]
 Deg. of freedom    51
 Full point group                 C1      NOp   1
 Largest Abelian subgroup         C1      NOp   1
 Largest concise Abelian subgroup C1      NOp   1
                         Standard orientation:                         
 ---------------------------------------------------------------------
 Center     Atomic      Atomic             Coordinates (Angstroms)
 Number     Number       Type             X           Y           Z
 ---------------------------------------------------------------------
      1          6           0       -0.316524   -0.683706   -0.000004
      2          6           0       -1.417810    0.136032    0.000005
      3          6           0       -1.277257    1.522090    0.000019
      4          6           0       -0.025261    2.069537    0.000018
      5          6           0        1.127115    1.259130   -0.000001
      6          6           0        0.965990   -0.134306   -0.000006
      7          1           0       -0.445844   -1.752527   -0.000007
      8          1           0       -2.159672    2.144051    0.000030
      9          1           0        0.096569    3.144898    0.000032
     10          7           0       -2.751224   -0.448559    0.000000
     11          8           0       -3.700049    0.312164   -0.000022
     12          8           0       -2.843123   -1.659059    0.000024
     13          7           0        2.357830    1.806886   -0.000016
     14          1           0        2.469147    2.803213    0.000016
     15          1           0        3.170142    1.211970   -0.000001
     16          6           0        2.169780   -0.975735   -0.000011
     17          8           0        3.294893   -0.536706   -0.000005
     18          8           0        1.931685   -2.302451   -0.000006
     19          1           0        2.799975   -2.729727   -0.000007
 ---------------------------------------------------------------------
 Rotational constants (GHZ):      1.5144894      0.5480264      0.4024115
 Basis read from rwf:  (5D, 7F)
 There are   547 symmetry adapted basis functions of A   symmetry.
 Integral buffers will be    131072 words long.
 Raffenetti 2 integral format.
 Two-electron integral symmetry is turned on.
   547 basis functions,   832 primitive gaussians,   625 cartesian basis functions
    47 alpha electrons       47 beta electrons
       nuclear repulsion energy       775.6608241954 Hartrees.
 NAtoms=   19 NActive=   19 NUniq=   19 SFac= 7.50D-01 NAtFMM=   80 NAOKFM=F Big=F
 One-electron integrals computed using PRISM.
 NBasis=   547 RedAO= T  NBF=   547
 NBsUse=   544 1.00D-06 NBFU=   544
 Initial guess read from the read-write file.
 B after Tr=     0.000000    0.000000    0.000000
         Rot=    1.000000    0.000000    0.000000    0.000000 Ang=   0.00 deg.
 Initial guess orbital symmetries:
       Occupied  (A) (A) (A) (A) (A) (A) (A) (A) (A) (A) (A) (A)
                 (A) (A) (A) (A) (A) (A) (A) (A) (A) (A) (A) (A)
                 (A) (A) (A) (A) (A) (A) (A) (A) (A) (A) (A) (A)
                 (A) (A) (A) (A) (A) (A) (A) (A) (A) (A) (A)
       Virtual   (A) (A) (A) (A) (A) (A) (A) (A) (A) (A) (A) (A)
                 (A) (A) (A) (A) (A) (A) (A) (A) (A) (A) (A) (A)
                 (A) (A) (A) (A) (A) (A) (A) (A) (A) (A) (A) (A)
                 (A) (A) (A) (A) (A) (A) (A) (A) (A) (A) (A) (A)
                 (A) (A) (A) (A) (A) (A) (A) (A) (A) (A) (A) (A)
                 (A) (A) (A) (A) (A) (A) (A) (A) (A) (A) (A) (A)
                 (A) (A) (A) (A) (A) (A) (A) (A) (A) (A) (A) (A)
                 (A) (A) (A) (A) (A) (A) (A) (A) (A) (A) (A) (A)
                 (A) (A) (A) (A) (A) (A) (A) (A) (A) (A) (A) (A)
                 (A) (A) (A) (A) (A) (A) (A) (A) (A) (A) (A) (A)
                 (A) (A) (A) (A) (A) (A) (A) (A) (A) (A) (A) (A)
                 (A) (A) (A) (A) (A) (A) (A) (A) (A) (A) (A) (A)
                 (A) (A) (A) (A) (A) (A) (A) (A) (A) (A) (A) (A)
                 (A) (A) (A) (A) (A) (A) (A) (A) (A) (A) (A) (A)
                 (A) (A) (A) (A) (A) (A) (A) (A) (A) (A) (A) (A)
                 (A) (A) (A) (A) (A) (A) (A) (A) (A) (A) (A) (A)
                 (A) (A) (A) (A) (A) (A) (A) (A) (A) (A) (A) (A)
                 (A) (A) (A) (A) (A) (A) (A) (A) (A) (A) (A) (A)
                 (A) (A) (A) (A) (A) (A) (A) (A) (A) (A) (A) (A)
                 (A) (A) (A) (A) (A) (A) (A) (A) (A) (A) (A) (A)
                 (A) (A) (A) (A) (A) (A) (A) (A) (A) (A) (A) (A)
                 (A) (A) (A) (A) (A) (A) (A) (A) (A) (A) (A) (A)
                 (A) (A) (A) (A) (A) (A) (A) (A) (A) (A) (A) (A)
                 (A) (A) (A) (A) (A) (A) (A) (A) (A) (A) (A) (A)
                 (A) (A) (A) (A) (A) (A) (A) (A) (A) (A) (A) (A)
                 (A) (A) (A) (A) (A) (A) (A) (A) (A) (A) (A) (A)
                 (A) (A) (A) (A) (A) (A) (A) (A) (A) (A) (A) (A)
                 (A) (A) (A) (A) (A) (A) (A) (A) (A) (A) (A) (A)
                 (A) (A) (A) (A) (A) (A) (A) (A) (A) (A) (A) (A)
                 (A) (A) (A) (A) (A) (A) (A) (A) (A) (A) (A) (A)
                 (A) (A) (A) (A) (A) (A) (A) (A) (A) (A) (A) (A)
                 (A) (A) (A) (A) (A) (A) (A) (A) (A) (A) (A) (A)
                 (A) (A) (A) (A) (A) (A) (A) (A) (A) (A) (A) (A)
                 (A) (A) (A) (A) (A) (A) (A) (A) (A) (A) (A) (A)
                 (A) (A) (A) (A) (A) (A) (A) (A) (A) (A) (A) (A)
                 (A) (A) (A) (A) (A) (A) (A) (A) (A) (A) (A) (A)
                 (A) (A) (A) (A) (A) (A) (A) (A) (A) (A) (A) (A)
                 (A) (A) (A) (A) (A) (A) (A) (A) (A) (A) (A) (A)
                 (A) (A) (A) (A) (A) (A) (A) (A) (A) (A) (A) (A)
                 (A) (A) (A) (A) (A) (A) (A) (A) (A) (A) (A) (A)
                 (A) (A) (A) (A) (A) (A) (A) (A) (A) (A) (A) (A)
                 (A) (A) (A) (A) (A)
 Harris functional with IExCor=20419 diagonalized for initial guess.
 ExpMin= 4.85D-02 ExpMax= 2.70D+04 ExpMxC= 9.22D+02 IAcc=3 IRadAn=         5 AccDes= 0.00D+00
 HarFok:  IExCor=20419 AccDes= 0.00D+00 IRadAn=         5 IDoV= 1
 ScaDFX=  1.000000  1.000000  1.000000  1.000000
 FoFCou: FMM=F IPFlag=           0 FMFlag=      100000 FMFlg1=           0
         NFxFlg=           0 DoJE=T BraDBF=F KetDBF=T FulRan=T
         Omega=  0.000000  0.000000  1.000000  0.000000  0.000000 ICntrl=     500 IOpCl=  0
         NMat0=    1 NMatS0=    1 NMatT0=    0 NMatD0=    1 NMtDS0=    0 NMtDT0=    0
         I1Cent=           4 NGrid=           0.
 Petite list used in FoFCou.
 FoFJK:  IHMeth= 1 ICntrl=     0 DoSepK=T KAlg= 1 I1Cent= 0 FoldK=F
 Gradient too large for Newton-Raphson -- use scaled steepest descent instead.
 FoFJK:  IHMeth= 1 ICntrl=     0 DoSepK=T KAlg= 1 I1Cent= 0 FoldK=F
 FoFJK:  IHMeth= 1 ICntrl=     0 DoSepK=T KAlg= 1 I1Cent= 0 FoldK=F
 FoFJK:  IHMeth= 1 ICntrl=     0 DoSepK=T KAlg= 1 I1Cent= 0 FoldK=F
 FoFJK:  IHMeth= 1 ICntrl=     0 DoSepK=T KAlg= 1 I1Cent= 0 FoldK=F
 FoFJK:  IHMeth= 1 ICntrl=     0 DoSepK=T KAlg= 1 I1Cent= 0 FoldK=F
 FoFJK:  IHMeth= 1 ICntrl=     0 DoSepK=T KAlg= 1 I1Cent= 0 FoldK=F
 FoFJK:  IHMeth= 1 ICntrl=     0 DoSepK=T KAlg= 1 I1Cent= 0 FoldK=F
 Gradient too large for Newton-Raphson -- use scaled steepest descent instead.
 FoFJK:  IHMeth= 1 ICntrl=     0 DoSepK=T KAlg= 1 I1Cent= 0 FoldK=F
 FoFJK:  IHMeth= 1 ICntrl=     0 DoSepK=T KAlg= 1 I1Cent= 0 FoldK=F
 FoFJK:  IHMeth= 1 ICntrl=     0 DoSepK=T KAlg= 1 I1Cent= 0 FoldK=F
 Gradient too large for Newton-Raphson -- use scaled steepest descent instead.
 FoFJK:  IHMeth= 1 ICntrl=     0 DoSepK=T KAlg= 1 I1Cent= 0 FoldK=F
 FoFJK:  IHMeth= 1 ICntrl=     0 DoSepK=T KAlg= 1 I1Cent= 0 FoldK=F
 FoFJK:  IHMeth= 1 ICntrl=     0 DoSepK=T KAlg= 1 I1Cent= 0 FoldK=F
 FoFJK:  IHMeth= 1 ICntrl=     0 DoSepK=T KAlg= 1 I1Cent= 0 FoldK=F
 FoFJK:  IHMeth= 1 ICntrl=     0 DoSepK=T KAlg= 1 I1Cent= 0 FoldK=F
 Gradient too large for Newton-Raphson -- use scaled steepest descent instead.
 FoFJK:  IHMeth= 1 ICntrl=     0 DoSepK=T KAlg= 1 I1Cent= 0 FoldK=F
 FoFJK:  IHMeth= 1 ICntrl=     0 DoSepK=T KAlg= 1 I1Cent= 0 FoldK=F
 FoFJK:  IHMeth= 1 ICntrl=     0 DoSepK=T KAlg= 1 I1Cent= 0 FoldK=F
 LinEq1:  Iter=  0 NonCon=     1 RMS=2.29D-05 Max=1.72D-03
 AX will form     1 AO Fock derivatives at one time.
 FoFJK:  IHMeth= 1 ICntrl=     0 DoSepK=T KAlg= 1 I1Cent= 0 FoldK=F
 LinEq1:  Iter=  1 NonCon=     1 RMS=2.49D-05 Max=2.11D-03
 FoFJK:  IHMeth= 1 ICntrl=     0 DoSepK=T KAlg= 1 I1Cent= 0 FoldK=F
 LinEq1:  Iter=  2 NonCon=     1 RMS=7.62D-06 Max=4.68D-04
 FoFJK:  IHMeth= 1 ICntrl=     0 DoSepK=T KAlg= 1 I1Cent= 0 FoldK=F
 LinEq1:  Iter=  3 NonCon=     1 RMS=7.63D-06 Max=4.75D-04
 FoFJK:  IHMeth= 1 ICntrl=     0 DoSepK=T KAlg= 1 I1Cent= 0 FoldK=F
 LinEq1:  Iter=  4 NonCon=     1 RMS=1.78D-06 Max=7.11D-05
 FoFJK:  IHMeth= 1 ICntrl=     0 DoSepK=T KAlg= 1 I1Cent= 0 FoldK=F
 LinEq1:  Iter=  5 NonCon=     1 RMS=8.58D-07 Max=3.27D-05
 FoFJK:  IHMeth= 1 ICntrl=     0 DoSepK=T KAlg= 1 I1Cent= 0 FoldK=F
 LinEq1:  Iter=  6 NonCon=     1 RMS=3.47D-07 Max=1.13D-05
 FoFJK:  IHMeth= 1 ICntrl=     0 DoSepK=T KAlg= 1 I1Cent= 0 FoldK=F
 LinEq1:  Iter=  7 NonCon=     1 RMS=1.10D-07 Max=5.55D-06
 FoFJK:  IHMeth= 1 ICntrl=     0 DoSepK=T KAlg= 1 I1Cent= 0 FoldK=F
 LinEq1:  Iter=  8 NonCon=     1 RMS=7.59D-08 Max=3.69D-06
 FoFJK:  IHMeth= 1 ICntrl=     0 DoSepK=T KAlg= 1 I1Cent= 0 FoldK=F
 LinEq1:  Iter=  9 NonCon=     1 RMS=3.42D-08 Max=1.78D-06
 FoFJK:  IHMeth= 1 ICntrl=     0 DoSepK=T KAlg= 1 I1Cent= 0 FoldK=F
 LinEq1:  Iter= 10 NonCon=     1 RMS=2.08D-08 Max=1.19D-06
 FoFJK:  IHMeth= 1 ICntrl=     0 DoSepK=T KAlg= 1 I1Cent= 0 FoldK=F
 LinEq1:  Iter= 11 NonCon=     1 RMS=7.45D-09 Max=3.59D-07
 FoFJK:  IHMeth= 1 ICntrl=     0 DoSepK=T KAlg= 1 I1Cent= 0 FoldK=F
 LinEq1:  Iter= 12 NonCon=     0 RMS=4.05D-09 Max=1.65D-07
 Linear equations converged to 2.161D-08 2.161D-07 after    12 iterations.
 FoFJK:  IHMeth= 1 ICntrl=     0 DoSepK=T KAlg= 1 I1Cent= 0 FoldK=F
 FoFJK:  IHMeth= 1 ICntrl=     0 DoSepK=T KAlg= 1 I1Cent= 0 FoldK=F
 FoFJK:  IHMeth= 1 ICntrl=     0 DoSepK=T KAlg= 1 I1Cent= 0 FoldK=F
 LinEq1:  Iter=  0 NonCon=     1 RMS=2.32D-08 Max=9.05D-07
 FoFJK:  IHMeth= 1 ICntrl=     0 DoSepK=T KAlg= 1 I1Cent= 0 FoldK=F
 LinEq1:  Iter=  1 NonCon=     1 RMS=1.74D-08 Max=1.02D-06
 FoFJK:  IHMeth= 1 ICntrl=     0 DoSepK=T KAlg= 1 I1Cent= 0 FoldK=F
 LinEq1:  Iter=  2 NonCon=     1 RMS=9.42D-09 Max=3.32D-07
 FoFJK:  IHMeth= 1 ICntrl=     0 DoSepK=T KAlg= 1 I1Cent= 0 FoldK=F
 LinEq1:  Iter=  3 NonCon=     1 RMS=2.78D-09 Max=1.19D-07
 FoFJK:  IHMeth= 1 ICntrl=     0 DoSepK=T KAlg= 1 I1Cent= 0 FoldK=F
 LinEq1:  Iter=  4 NonCon=     1 RMS=1.99D-09 Max=1.50D-07
 FoFJK:  IHMeth= 1 ICntrl=     0 DoSepK=T KAlg= 1 I1Cent= 0 FoldK=F
 LinEq1:  Iter=  5 NonCon=     1 RMS=1.04D-09 Max=7.99D-08
 FoFJK:  IHMeth= 1 ICntrl=     0 DoSepK=T KAlg= 1 I1Cent= 0 FoldK=F
 LinEq1:  Iter=  6 NonCon=     1 RMS=8.30D-10 Max=5.17D-08
 FoFJK:  IHMeth= 1 ICntrl=     0 DoSepK=T KAlg= 1 I1Cent= 0 FoldK=F
 LinEq1:  Iter=  7 NonCon=     1 RMS=4.55D-10 Max=1.41D-08
 FoFJK:  IHMeth= 1 ICntrl=     0 DoSepK=T KAlg= 1 I1Cent= 0 FoldK=F
 LinEq1:  Iter=  8 NonCon=     1 RMS=2.73D-10 Max=1.27D-08
 FoFJK:  IHMeth= 1 ICntrl=     0 DoSepK=T KAlg= 1 I1Cent= 0 FoldK=F
 LinEq1:  Iter=  9 NonCon=     1 RMS=1.25D-10 Max=5.14D-09
 FoFJK:  IHMeth= 1 ICntrl=     0 DoSepK=T KAlg= 1 I1Cent= 0 FoldK=F
 LinEq1:  Iter= 10 NonCon=     1 RMS=8.80D-11 Max=3.34D-09
 FoFJK:  IHMeth= 1 ICntrl=     0 DoSepK=T KAlg= 1 I1Cent= 0 FoldK=F
 LinEq1:  Iter= 11 NonCon=     1 RMS=4.16D-11 Max=2.17D-09
 FoFJK:  IHMeth= 1 ICntrl=     0 DoSepK=T KAlg= 1 I1Cent= 0 FoldK=F
 LinEq1:  Iter= 12 NonCon=     1 RMS=2.18D-11 Max=8.58D-10
 FoFJK:  IHMeth= 1 ICntrl=     0 DoSepK=T KAlg= 1 I1Cent= 0 FoldK=F
 LinEq1:  Iter= 13 NonCon=     0 RMS=1.49D-11 Max=3.50D-10
 Linear equations converged to 4.682D-11 4.682D-10 after    13 iterations.
 FoFJK:  IHMeth= 1 ICntrl=     0 DoSepK=T KAlg= 1 I1Cent= 0 FoldK=F
 FoFJK:  IHMeth= 1 ICntrl=     0 DoSepK=T KAlg= 1 I1Cent= 0 FoldK=F
 FoFJK:  IHMeth= 1 ICntrl=     0 DoSepK=T KAlg= 1 I1Cent= 0 FoldK=F
 FoFJK:  IHMeth= 1 ICntrl=     0 DoSepK=T KAlg= 1 I1Cent= 0 FoldK=F
 LinEq1:  Iter=  0 NonCon=     1 RMS=1.53D-08 Max=5.98D-07
 FoFJK:  IHMeth= 1 ICntrl=     0 DoSepK=T KAlg= 1 I1Cent= 0 FoldK=F
 LinEq1:  Iter=  1 NonCon=     1 RMS=1.15D-08 Max=6.72D-07
 FoFJK:  IHMeth= 1 ICntrl=     0 DoSepK=T KAlg= 1 I1Cent= 0 FoldK=F
 LinEq1:  Iter=  2 NonCon=     1 RMS=6.22D-09 Max=2.19D-07
 FoFJK:  IHMeth= 1 ICntrl=     0 DoSepK=T KAlg= 1 I1Cent= 0 FoldK=F
 LinEq1:  Iter=  3 NonCon=     1 RMS=1.84D-09 Max=7.88D-08
 FoFJK:  IHMeth= 1 ICntrl=     0 DoSepK=T KAlg= 1 I1Cent= 0 FoldK=F
 LinEq1:  Iter=  4 NonCon=     1 RMS=1.32D-09 Max=9.88D-08
 FoFJK:  IHMeth= 1 ICntrl=     0 DoSepK=T KAlg= 1 I1Cent= 0 FoldK=F
 LinEq1:  Iter=  5 NonCon=     1 RMS=6.89D-10 Max=5.28D-08
 FoFJK:  IHMeth= 1 ICntrl=     0 DoSepK=T KAlg= 1 I1Cent= 0 FoldK=F
 LinEq1:  Iter=  6 NonCon=     1 RMS=5.49D-10 Max=3.42D-08
 FoFJK:  IHMeth= 1 ICntrl=     0 DoSepK=T KAlg= 1 I1Cent= 0 FoldK=F
 LinEq1:  Iter=  7 NonCon=     1 RMS=3.01D-10 Max=9.32D-09
 FoFJK:  IHMeth= 1 ICntrl=     0 DoSepK=T KAlg= 1 I1Cent= 0 FoldK=F
 LinEq1:  Iter=  8 NonCon=     1 RMS=1.81D-10 Max=8.39D-09
 FoFJK:  IHMeth= 1 ICntrl=     0 DoSepK=T KAlg= 1 I1Cent= 0 FoldK=F
 LinEq1:  Iter=  9 NonCon=     1 RMS=8.37D-11 Max=3.36D-09
 FoFJK:  IHMeth= 1 ICntrl=     0 DoSepK=T KAlg= 1 I1Cent= 0 FoldK=F
 LinEq1:  Iter= 10 NonCon=     1 RMS=5.97D-11 Max=2.21D-09
 FoFJK:  IHMeth= 1 ICntrl=     0 DoSepK=T KAlg= 1 I1Cent= 0 FoldK=F
 LinEq1:  Iter= 11 NonCon=     1 RMS=3.01D-11 Max=1.36D-09
 FoFJK:  IHMeth= 1 ICntrl=     0 DoSepK=T KAlg= 1 I1Cent= 0 FoldK=F
 LinEq1:  Iter= 12 NonCon=     1 RMS=1.72D-11 Max=6.83D-10
 FoFJK:  IHMeth= 1 ICntrl=     0 DoSepK=T KAlg= 1 I1Cent= 0 FoldK=F
 LinEq1:  Iter= 13 NonCon=     1 RMS=1.23D-11 Max=3.21D-10
 FoFJK:  IHMeth= 1 ICntrl=     0 DoSepK=T KAlg= 1 I1Cent= 0 FoldK=F
 LinEq1:  Iter= 14 NonCon=     1 RMS=8.45D-12 Max=3.20D-10
 FoFJK:  IHMeth= 1 ICntrl=     0 DoSepK=T KAlg= 1 I1Cent= 0 FoldK=F
 LinEq1:  Iter= 15 NonCon=     0 RMS=6.59D-12 Max=9.98D-11
 Linear equations converged to 3.095D-11 3.095D-10 after    15 iterations.
 FoFJK:  IHMeth= 1 ICntrl=     0 DoSepK=T KAlg= 1 I1Cent= 0 FoldK=F
 FoFJK:  IHMeth= 1 ICntrl=     0 DoSepK=T KAlg= 1 I1Cent= 0 FoldK=F
 FoFJK:  IHMeth= 1 ICntrl=     0 DoSepK=T KAlg= 1 I1Cent= 0 FoldK=F
 FoFJK:  IHMeth= 1 ICntrl=     0 DoSepK=T KAlg= 1 I1Cent= 0 FoldK=F
 FoFJK:  IHMeth= 1 ICntrl=     0 DoSepK=T KAlg= 1 I1Cent= 0 FoldK=F
 FoFJK:  IHMeth= 1 ICntrl=     0 DoSepK=T KAlg= 1 I1Cent= 0 FoldK=F
 FoFJK:  IHMeth= 1 ICntrl=     0 DoSepK=T KAlg= 1 I1Cent= 0 FoldK=F
 FoFJK:  IHMeth= 1 ICntrl=     0 DoSepK=T KAlg= 1 I1Cent= 0 FoldK=F
 FoFJK:  IHMeth= 1 ICntrl=     0 DoSepK=T KAlg= 1 I1Cent= 0 FoldK=F
 FoFJK:  IHMeth= 1 ICntrl=     0 DoSepK=T KAlg= 1 I1Cent= 0 FoldK=F
 FoFJK:  IHMeth= 1 ICntrl=     0 DoSepK=T KAlg= 1 I1Cent= 0 FoldK=F
 FoFJK:  IHMeth= 1 ICntrl=     0 DoSepK=T KAlg= 1 I1Cent= 0 FoldK=F
 FoFJK:  IHMeth= 1 ICntrl=     0 DoSepK=T KAlg= 1 I1Cent= 0 FoldK=F
[...]
 ,0.3869554,0.0000022,-0.2739813,-0.622078,0.0000006,-0.0000015,-0.0000
 032,-0.1047166,0.1645822,-0.0166311,-0.0000002,-0.0019489,0.1124884,0.
 ,-0.0000005,0.0000003,0.126744,0.1029986,0.0457666,0.0000004,0.0287368
 ,0.0993641,-0.0000003,0.,-0.0000006,0.1285047,0.0364958,-0.0463918,0.,
 -0.0310292,-0.0584524,-0.0000009,0.0000011,0.,0.1391726,2.3360459,0.14
 45097,-0.0000002,0.3020348,1.6574304,-0.000002,0.0000005,-0.0000006,0.
 2540644,-1.2766067,0.3371282,0.,0.2796246,-0.6794753,0.0000003,0.,0.00
 00006,-0.255603,-0.7061819,-0.2565257,0.,-0.323983,-1.1979154,0.000001
 ,-0.0000006,-0.0000004,-0.2507521,-1.4670323,-0.6714057,0.0000047,-0.5
 184239,-0.5580543,0.000006,0.0000187,0.0000167,-0.4804803,0.1721269,0.
 0740266,0.0000014,0.0903698,0.2094758,-0.0000024,-0.000004,-0.0000067,
 0.3015739,0.3183948,-0.0648558,-0.0000012,-0.1303854,0.3002569,-0.0000
 005,-0.0000053,-0.0000038,0.2708986,1.856192,-0.347371,0.0000082,-0.42
 0394,1.9224631,0.0000173,0.0000044,0.0000189,0.3246577,-1.4111091,0.02
 57814,-0.0000071,0.0742408,-0.7286381,-0.0000039,-0.000003,-0.0000034,
 -0.3615729,-0.3971972,0.0000756,-0.0000005,0.1262825,-1.4712862,-0.000
 0126,0.0000008,-0.000015,-0.3469177,0.2202144,-0.0350102,-0.000001,-0.
 0861514,0.4170323,0.0000008,-0.0000017,0.0000012,0.3272643\Polar=170.4
 011166,5.0378231,132.9472861,-0.0001434,0.0002438,62.4062349\PG=C01 [X
 (C7H6N2O4)]\NImag=0\\0.70049910,-0.00769617,0.77558558,-0.00000087,0.0
 0000246,0.15475368,-0.24532017,0.14736709,0.00000110,0.62353069,0.0836
 4876,-0.22693894,-0.00000083,-0.07461682,0.73276519,0.00000083,-0.0000
 0094,-0.06719143,-0.00000107,0.00000284,0.13507119,0.04360757,0.019174
 14,0.,-0.11951530,0.02831299,0.00000020,0.78343520,0.06949080,-0.04464
 410,-0.00000037,-0.03652965,-0.31151014,-0.00000124,-0.02350151,0.6960
 1103,0.00000024,-0.00000029,0.00825125,-0.00000014,-0.00000145,-0.0653
 8153,-0.00000115,0.00000288,0.15014998,-0.06247872,0.01410047,0.000000
 18,0.00973450,-0.08810383,-0.00000040,-0.36058723,-0.05999223,0.000000
 07,0.72100190,0.00447415,-0.00249654,-0.00000003,-0.03439379,-0.013686
 36,-0.00000009,-0.12882691,-0.17710883,-0.00000032,0.06313181,0.736951
 98,0.00000002,-0.00000004,-0.00252178,-0.00000008,0.00000003,0.0088364
 9,-0.00000008,-0.00000034,-0.06100823,-0.00000142,0.00000258,0.1277242
 6,0.02606051,-0.04433637,-0.00000026,-0.00059555,0.04042830,0.00000018
 ,-0.06650189,-0.02063417,0.00000008,-0.20399067,0.10665314,0.00000078,
 0.75088483,-0.08577202,-0.00850800,0.00000014,0.03450251,-0.05451184,-
 0.00000026,0.02789516,0.06801014,0.00000024,0.05109785,-0.20483704,-0.
 00000102,0.03474417,0.68774191,-0.00000041,0.00000010,0.00176405,0.,-0
 .00000039,-0.00648087,0.00000038,0.00000033,0.00113553,0.00000064,-0.0
 0000088,-0.07453612,-0.00000252,0.00000192,0.18265661,-0.29159398,-0.1
 0505234,-0.00000008,-0.06893524,0.04428616,0.00000024,-0.02555869,-0.0
 3992513,-0.00000012,0.04545023,0.01922335,0.00000003,-0.14641574,0.015
 90205,0.00000027,0.69397963,-0.05328129,-0.16140769,-0.00000044,-0.012
 07288,0.04154014,0.00000010,-0.01494963,-0.02958660,-0.00000010,0.0404
 2496,-0.02370228,-0.00000006,-0.01873752,-0.26730446,-0.00000080,0.033
 20615,0.66140433,0.00000005,-0.00000031,-0.06303173,-0.00000002,0.0000
 0013,0.00931867,-0.00000004,-0.00000012,-0.00355425,0.00000020,-0.0000
 0013,0.00789476,-0.00000013,-0.00000066,-0.07369297,-0.00000008,0.0000
 0185,0.14112029,-0.06278136,-0.03840222,-0.00000014,0.00982502,0.02412
 748,0.00000008,-0.00455896,0.00292351,0.00000003,-0.00094694,-0.000093
 82,0.,-0.00495275,-0.00096414,0.00000002,0.00092693,-0.02752077,-0.000
 00009,0.06266922,-0.03910061,-0.34862431,-0.00000096,-0.00243509,-0.01
 407969,-0.00000007,0.00271939,-0.00050881,-0.00000003,0.00023581,0.000
 69501,0.,-0.00089581,0.00100219,-0.00000002,-0.00122031,-0.00510641,-0
 .00000004,0.04163750,0.36985060,-0.00000019,-0.00000093,-0.04431947,0.
 ,-0.00000019,0.00782434,0.00000005,0.,0.00560575,-0.00000002,0.0000000
 1,-0.00100613,0.,-0.00000005,0.00675942,0.00000005,0.00000004,0.005155
 32,0.00000011,0.00000110,0.02879044,0.00072196,-0.00194635,0.,0.007325
 48,-0.00083562,-0.00000001,-0.24540134,0.14076238,0.00000104,-0.015883
 62,0.01668160,0.00000011,-0.00317093,-0.00244798,0.00000002,-0.0001662
 0,-0.00088956,0.,0.00045939,-0.00023949,0.,0.25945634,-0.00185098,-0.0
 0596641,-0.00000004,0.02600724,-0.01209900,-0.00000014,0.13911688,-0.1
 6443526,-0.00000083,-0.01177950,0.01267501,0.00000004,-0.00339032,-0.0
 0069223,-0.00000004,-0.00117786,-0.00002455,0.,0.00132035,-0.00045472,
 0.,-0.15033539,0.16747950,-0.00000001,-0.00000006,0.00472545,0.0000001
 5,-0.00000010,0.00587387,0.00000101,-0.00000082,-0.04391208,0.,0.00000
 003,0.00615866,0.00000003,-0.00000003,0.00958237,0.,0.,-0.00096382,0.0
 0000001,0.,0.00013040,-0.00000112,0.00000093,0.02844488,-0.00169171,0.
 00016114,0.,-0.00437599,-0.00105089,0.00000002,-0.00020811,-0.03148194
 ,-0.00000012,-0.06365377,-0.03224387,-0.00000005,0.00569675,0.02604951
 ,0.00000011,-0.00345191,0.00201263,0.00000002,0.00004582,-0.00001696,0
 .,0.00117595,0.00042423,-0.00000001,0.06481597,0.00068640,0.00046682,0
 .,-0.00204148,0.00194114,-0.00000002,-0.00059922,-0.00837836,-0.000000
 05,-0.03166656,-0.33642374,-0.00000114,-0.00622532,-0.01600672,-0.0000
 0006,0.00332090,-0.00037428,-0.00000003,-0.00001576,-0.00004633,0.,-0.
 00008235,0.00082384,0.00000002,0.03630167,0.35665697,0.00000005,0.,-0.
 00090706,0.,0.00000002,0.00790482,-0.00000005,-0.00000003,0.00305807,0
 .00000008,-0.00000112,-0.03457986,-0.00000012,-0.00000011,0.00409717,0
 .00000004,-0.00000004,0.00466847,0.,0.,-0.00040061,-0.00000001,0.00000
 003,-0.00539331,0.00000006,0.00000125,0.02381443,-0.05460699,-0.004394
 58,0.,-0.12932128,-0.01091762,0.00000009,-0.01512737,-0.03370112,-0.00
 000010,0.01489075,0.00174923,-0.00000005,-0.01455864,-0.00544387,0.000
 00015,0.00935554,0.01234241,0.00000007,0.00105460,-0.00060926,0.,-0.00
 031058,0.00441466,0.00000002,0.00084073,0.00060787,0.,0.73036008,-0.00
 411950,0.02373722,0.00000010,-0.00547258,-0.12159105,-0.00000021,-0.03
 821564,-0.00875355,0.00000006,0.00351383,-0.00878919,-0.00000010,-0.00
 331576,-0.00671583,0.00000003,0.01390475,-0.00126646,-0.00000005,0.002
 71407,-0.00318702,0.00000002,0.00053328,-0.00190943,0.,-0.00153174,-0.
 00024314,0.,-0.10253847,0.93958086,0.00000016,0.00000013,-0.00361850,0
 .00000004,-0.00000019,-0.08364496,-0.00000024,-0.00000007,-0.00411682,
 0.00000008,-0.00000007,0.00669484,-0.00000001,0.,-0.00120372,-0.000000
 01,-0.00000005,0.00890332,-0.00000001,0.00000002,-0.00529824,0.,0.0000
 0002,-0.00355631,-0.00000001,0.,0.00134971,0.00000023,0.00000025,0.252
 14723,0.00108857,-0.00868914,-0.00000006,-0.06940923,0.02971110,-0.000
 00003,0.00020087,0.00644745,0.,-0.00365608,0.00031158,0.00000003,0.004
 21975,0.00369165,-0.00000004,-0.00531569,-0.00153127,0.00000001,0.0012
 6838,-0.00018259,-0.00000002,-0.00339882,-0.00199133,-0.00000002,-0.00
 018488,-0.00020999,0.,-0.40609650,0.19477215,-0.00000021,0.46199734,-0
 .00069729,-0.00069602,-0.00000001,0.01369271,0.01602384,0.00000001,-0.
 00665581,-0.01028036,-0.00000006,0.00216224,0.00247431,0.,-0.00227411,
 -0.00027785,0.00000002,-0.00122310,0.00234629,0.00000001,-0.00164554,0
 .00052779,0.00000001,-0.00298249,0.00253128,0.00000001,0.00016043,-0.0
 0000044,0.,0.19266361,-0.27675582,0.00000011,-0.27182846,0.36930974,-0
 .00000003,-0.00000003,0.00367092,0.,0.00000002,0.02149159,0.,-0.000000
 03,0.00111020,-0.00000001,0.00000001,-0.00046872,0.,-0.00000001,0.0001
 4998,0.00000002,0.00000002,-0.00146403,0.,0.,0.00057981,-0.00000001,0.
 00000001,-0.00016586,0.,0.,-0.00003679,-0.00000027,0.00000011,-0.08409
 609,0.00000031,-0.00000015,0.03088972,-0.00442680,-0.00196314,0.000000
 03,-0.00521187,-0.04924896,-0.00000005,-0.00515264,0.00457106,0.000000
 05,-0.00267550,-0.00233037,-0.00000001,0.00305338,-0.00038973,-0.00000
 004,0.00004943,-0.00191941,-0.00000001,-0.00271191,-0.00369614,0.,0.00
 007126,-0.00058132,0.,-0.00071477,-0.00028268,0.,-0.14695639,-0.064016
 07,-0.00000004,0.02370504,0.07704982,0.00000002,0.14325780,0.01421680,
 -0.00483941,-0.00000003,-0.03670364,-0.04603275,-0.00000005,-0.0036176
 7,0.00346541,0.00000002,-0.00357822,0.00005288,0.,0.00474031,0.0017675
 8,-0.00000004,-0.00605539,-0.00109922,0.,-0.00252082,0.00161061,0.,0.0
 0098416,0.00165842,0.00000002,-0.00050456,-0.00022615,0.,-0.06149228,-
 0.53941153,-0.00000014,0.05320292,-0.10573647,0.00000003,0.04413120,0.
 69139966,0.00000003,-0.00000002,0.00113850,-0.00000002,-0.00000002,0.0
 2098548,0.00000003,0.,0.00382876,-0.00000003,0.00000002,-0.00098586,0.
 00000002,0.,0.00027317,0.,0.,-0.00073496,0.,0.00000001,0.00000267,0.,0
 .,0.00036364,0.,0.,-0.00061544,-0.00000002,-0.00000018,-0.08432290,-0.
 00000002,0.00000005,0.02885423,0.00000003,0.00000014,0.03126524,-0.003
 15560,0.00597136,0.00000003,-0.01021209,-0.01764630,-0.00000008,0.0147
 0248,0.01856785,0.00000010,-0.07750732,-0.00814578,0.00000070,-0.33769
 595,-0.08714346,0.00000213,0.00548475,-0.03619142,-0.00000005,0.000049
 89,0.00030946,0.,-0.00061084,-0.00029264,-0.00000003,0.00220094,-0.001
 04572,-0.00000002,0.01355894,0.00483020,0.,-0.00460476,0.00129311,0.,-
 0.00283729,-0.00445077,-0.00000001,0.79916043,0.01110410,-0.00554015,-
 0.00000002,-0.00844058,0.00101222,0.00000001,0.00485415,-0.00626034,-0
 .00000010,0.01882205,0.02160626,-0.00000003,-0.09382776,-0.18333575,-0
 .00000002,-0.04787753,-0.03081568,0.00000019,-0.00135047,-0.00014554,0
 .,0.00092949,0.00065233,0.,0.00074017,0.00219239,0.00000006,0.00577839
 ,0.00205577,0.00000002,-0.00245088,0.00102070,0.,-0.00110370,-0.001121
 17,0.,-0.03201528,0.87940502,0.00000006,-0.00000017,0.00429746,0.00000
 018,0.00000027,-0.00066877,-0.00000023,-0.00000027,0.00449046,0.000000
 87,-0.00000006,0.01199542,0.00000060,-0.00000071,-0.04682549,-0.000000
 35,0.00000041,0.00907309,-0.00000002,0.,-0.00005935,0.,0.,-0.00048070,
 0.,0.00000002,-0.00268554,-0.00000022,-0.00000007,-0.00056578,0.000000
 08,-0.00000002,0.00005035,0.00000004,0.00000007,0.00002286,-0.00000170
 ,0.00000927,0.02622165,0.00084257,-0.00140080,0.00000003,-0.00029968,0
 .00002620,0.,0.00008948,0.00039410,0.,0.00127695,-0.00206066,0.,0.0014
 8002,-0.03606737,-0.00000067,-0.00522291,-0.00068949,0.00000005,-0.000
 36025,-0.00005638,0.,-0.00002674,0.00000683,0.,-0.00067049,0.00146512,
 0.,0.00014874,0.00004093,0.,-0.00008001,0.00012531,0.,0.00001673,0.000
 11283,0.,-0.07801600,-0.02834847,-0.00000021,0.06871627,0.00024488,-0.
 00085770,-0.00000001,0.00106038,0.00156509,0.,-0.00132263,-0.00164374,
 0.00000004,0.00454904,0.00209749,0.00000006,-0.00528595,-0.01233439,-0
 .00000014,-0.00135220,0.00423177,-0.00000005,-0.00012580,0.00003124,0.
 ,0.00005009,0.00001834,0.,-0.00048849,0.00005739,-0.00000004,-0.001332
 13,-0.00047423,-0.00000001,0.00047464,-0.00016916,0.,0.00025637,0.0004
 2271,0.,-0.03213828,-0.46459856,-0.00000751,0.04131568,0.48114767,0.00
 000005,0.00000006,0.00153788,-0.00000008,-0.00000003,0.00007468,0.0000
 0004,0.00000003,-0.00087928,-0.00000010,0.00000008,-0.00305541,0.00000
 052,0.00000078,-0.00395064,0.00000014,-0.00000021,0.00456835,0.0000000
 1,0.,-0.00020280,0.,0.,0.00023730,-0.00000002,0.,0.00066002,0.00000006
 ,0.00000002,0.00012898,-0.00000002,0.,-0.00006777,0.,-0.00000002,-0.00
 004275,-0.00000083,-0.00000882,-0.00016875,0.00000034,0.00000786,0.005
 97742,-0.00025584,0.00038382,0.00000001,0.00102614,0.00145708,0.,-0.00
 188472,-0.00016530,0.00000002,0.00062133,-0.00432596,0.,-0.02933761,0.
 01600472,0.,-0.00020688,0.00279180,0.00000003,0.00019999,-0.00003448,0
 .,-0.00021039,-0.00018122,0.,-0.00001677,0.00024888,0.,-0.00137827,-0.
 00048972,0.,0.00047336,-0.00017493,0.,0.00031068,0.00047410,0.,-0.3139
 7764,0.17348278,0.00000069,0.01352946,-0.00729898,0.00000001,0.3349444
 8,-0.00183977,-0.00030360,0.,-0.00056551,-0.00407734,-0.00000002,0.002
 50017,0.00450722,0.,-0.00931035,-0.00138016,0.00000005,-0.00300561,0.0
 2415540,0.00000001,0.00477812,-0.00514026,-0.00000004,-0.00035823,0.00
 003850,0.,-0.00022943,-0.00010879,0.,0.00005497,0.00006419,0.,0.001854
 59,0.00072969,0.,-0.00040990,0.00009550,0.,-0.00038134,-0.00085075,0.,
 0.17214721,-0.20133677,-0.00000102,0.02071585,-0.00740173,0.00000012,-
 0.18133294,0.18886616,-0.00000002,0.,-0.00051541,-0.00000003,-0.000000
 07,0.00015059,0.00000007,0.00000005,0.00190711,-0.00000008,0.00000005,
 0.00460531,0.00000056,-0.00000004,-0.00262984,-0.00000003,-0.00000004,
 -0.00234177,0.,0.,0.00006997,0.,0.,-0.00051008,0.,0.,-0.00074909,0.000
 00005,0.00000002,-0.00018434,-0.00000002,0.,0.00002397,-0.00000001,-0.
 00000001,0.00000419,-0.00000028,-0.00000069,-0.00561690,0.00000052,-0.
 00000021,-0.00486297,-0.00000075,0.00000099,0.01411395,-0.04924292,0.0
 1751308,-0.00000005,0.00553251,-0.01800211,-0.00000008,0.00811624,0.00
 865843,0.00000002,-0.00976782,0.00006980,0.00000005,0.04291218,0.02461
 777,-0.00000011,-0.15085362,0.04361568,0.,0.00031323,-0.00060065,0.,-0
 .00018699,0.00015779,0.,0.00056210,-0.00133307,0.,-0.00485517,-0.00244
 065,0.00000002,0.00236998,0.00030989,0.,0.00162222,0.00175562,0.,-0.02
 982762,-0.00196168,0.00000043,-0.00331674,0.00252570,-0.00000013,0.005
 61721,-0.02462569,0.00000004,0.93462588,0.01468802,0.01857120,0.000000
 12,-0.01519702,0.00825180,0.00000003,-0.00611101,-0.00720708,-0.000000
 01,0.00287629,-0.00705118,-0.00000007,0.02047154,-0.02473029,-0.000000
 04,0.05294341,-0.15814023,0.,-0.00354517,-0.00016909,0.00000002,0.0001
 0694,-0.00031722,0.,0.00107455,-0.00033688,-0.00000001,0.00595312,0.00
 885265,0.,-0.00324301,-0.00149194,0.,-0.00168679,-0.00514848,0.,0.0077
 0581,0.00446517,-0.00000011,-0.00050776,-0.00044463,0.00000002,-0.0043
 6181,-0.00405893,0.00000005,0.07156508,0.64332902,0.00000014,0.0000000
 5,-0.00206854,-0.00000006,-0.00000002,0.00826610,0.,0.,-0.00091965,-0.
 00000003,-0.00000006,0.00589318,0.00000026,-0.00000016,0.00132838,0.00
 000019,-0.00000009,-0.08340069,-0.00000005,0.00000002,-0.00455563,0.,0
 .,-0.00066582,0.,0.,-0.00018003,0.00000005,0.00000005,0.00233131,0.,0.
 ,-0.00084707,0.,-0.00000004,-0.00018786,-0.00000009,0.00000012,-0.0018
 6089,-0.00000004,0.,-0.00014691,0.,-0.00000013,0.00009728,0.00000336,0
 .00000448,0.22167056,0.00813734,0.00715046,0.00000006,-0.00574877,0.00
 763177,0.00000006,-0.00517639,-0.00632778,-0.00000001,0.00699387,-0.00
 150431,-0.00000004,-0.01794730,-0.01466315,0.00000007,-0.06726333,0.00
 274135,-0.00000031,0.00108619,0.00011934,-0.00000002,0.00009892,-0.000
 00482,0.,-0.00000501,0.00049628,0.,0.00258630,0.00222678,0.,-0.0022402
 3,-0.00008361,0.,-0.00102355,-0.00084591,0.,0.01929972,0.00333411,-0.0
 0000021,0.00108550,-0.00084183,0.00000001,-0.00798193,0.01481432,0.000
 00002,-0.63703681,-0.14083049,-0.00000342,0.74163205,0.00390020,-0.004
 18080,-0.00000002,0.00141721,0.00393964,0.00000002,-0.00178537,-0.0026
 4142,-0.00000001,0.00438699,0.00001545,0.,-0.01323342,-0.00530932,0.00
 000008,0.01062625,0.02497679,0.00000005,0.00103097,-0.00004658,-0.0000
 0001,-0.00002812,0.00003655,0.,-0.00011761,0.00025106,0.,-0.00158242,-
 0.00188227,0.,0.00069020,0.00028413,0.,0.00054715,0.00134417,0.,0.0092
 1528,-0.01642535,-0.00000017,0.00442742,-0.00182837,0.00000012,0.00393
 066,0.00301789,-0.00000006,-0.13326364,-0.15979182,-0.00000122,0.19754
 995,0.19439484,-0.00000004,0.00000001,0.00362707,0.00000002,-0.0000000
 1,-0.00178695,0.,0.00000001,0.00019832,-0.00000003,0.,-0.00057606,0.,-
 0.00000001,-0.00137309,-0.00000019,-0.00000009,0.02213413,0.00000002,0
 .,0.00075375,0.,0.,0.00002627,0.,0.,0.00004011,-0.00000001,-0.00000001
 ,-0.00081586,0.,0.,0.00026795,0.,0.00000001,0.00008569,0.00000008,0.00
 000007,0.00287334,-0.00000005,0.00000002,0.00069093,0.00000003,-0.0000
 0012,-0.00480355,-0.00000353,-0.00000116,-0.08152505,0.00000494,0.0000
 0233,0.03702962,-0.00480955,0.00223588,0.00000004,0.00164474,0.0009645
 9,0.,-0.00055329,0.00029297,0.,0.00128496,0.00163712,-0.00000001,-0.00
 984017,-0.00178272,0.00000004,0.00900827,0.03366650,0.00000033,-0.0018
 5712,0.00375761,0.00000004,0.00005181,0.00011439,0.,-0.00039255,0.0004
 0491,0.,0.00055903,-0.00040071,0.,-0.00043858,0.00015002,0.,-0.0003814
 1,0.00017207,0.,0.00421622,-0.00138322,-0.00000003,0.00080862,-0.00035
 019,0.00000001,-0.00151527,0.00517438,-0.00000004,-0.13131109,-0.00441
 714,-0.00000036,-0.02996837,-0.08487443,-0.00000121,0.54814001,-0.0074
 6756,-0.00372693,-0.00000005,0.00478235,-0.00306139,0.,0.00130284,0.00
 098950,0.,-0.00054133,-0.00061699,0.00000002,0.00634344,0.00240083,-0.
 00000004,0.01052206,-0.04571015,-0.00000068,0.00234552,-0.00180784,-0.
 00000003,-0.00005460,0.00010017,0.,0.00035058,-0.00036024,0.,-0.004117
 76,-0.00438789,0.,0.00158886,0.00082229,0.,0.00133466,0.00305734,0.,-0
 .00065064,-0.00366373,0.00000009,0.00071715,0.00017682,-0.00000002,-0.
 00062512,0.00444958,-0.00000006,-0.03828980,-0.27299560,-0.00000268,-0
 .06946283,-0.04677757,-0.00000124,-0.12346359,0.52502133,-0.00000006,-
 0.00000004,0.00076164,0.00000004,-0.00000001,-0.00088102,0.,-0.0000000
 1,-0.00001434,0.00000002,0.,-0.00074960,0.,0.00000002,0.00198223,0.000
 00002,-0.00000042,0.01231991,0.00000003,-0.00000002,0.00036495,0.,0.,0
 .00013356,0.,0.,-0.00004001,-0.00000004,-0.00000004,-0.00012016,0.0000
 0002,0.,0.00006571,0.00000001,0.00000003,0.00010672,0.00000003,-0.0000
 0008,-0.00000047,0.00000003,0.,-0.00050900,-0.00000003,0.00000015,0.00
 116290,-0.00000076,-0.00000270,-0.06701040,-0.00000111,-0.00000129,0.0
 2896344,0.00000093,0.00000543,0.03788943,-0.00059399,-0.00017634,0.,0.
 00032611,-0.00017229,0.,0.00007408,0.00015028,0.,-0.00010682,-0.000006
 31,0.,0.00069977,0.00016905,0.,0.00072941,-0.00301826,-0.00000005,0.00
 027063,0.00030866,0.,0.00000533,0.00002301,0.,0.00002769,-0.00002986,0
 .,-0.00014352,0.00000486,0.,0.00010148,-0.00004180,0.,0.00000560,-0.00
 002075,0.,-0.00022824,-0.00028566,0.00000001,-0.00000153,0.00005971,0.
 ,0.00004268,0.00001915,0.,0.01472721,0.00251543,0.00000005,-0.00652820
 ,-0.00283728,-0.00000002,-0.38464626,0.21538577,0.00000087,0.37523856,
 -0.00062893,0.00036978,0.00000002,-0.00036046,0.00054943,0.,-0.0002903
 1,-0.00002471,0.,-0.00032932,-0.00047609,0.,0.00178122,-0.00051430,-0.
 00000003,-0.00482936,-0.00482105,-0.00000012,0.00044335,0.00042041,0.,
 0.00002345,0.00003218,0.,0.00010619,-0.00005753,0.,0.00076564,0.000411
 22,0.,-0.00035398,-0.00002782,0.,-0.00029061,-0.00031285,0.,-0.0003199
 8,0.00083315,0.,-0.00021650,0.00000398,0.,0.00021662,-0.00126579,0.,0.
 04972845,-0.04158645,-0.00000029,-0.00149965,0.01062299,0.00000018,0.1
 6810155,-0.15390953,-0.00000102,-0.21204736,0.18975297,0.,0.,-0.000353
 99,0.,0.,0.00023773,0.,0.,0.00005076,0.,0.,-0.00031516,0.00000002,-0.0
 0000002,0.00096384,-0.00000011,-0.00000008,0.00402792,0.,0.,-0.0001945
 9,0.,0.,-0.00002840,0.,0.,-0.00000506,0.,0.,-0.00001169,0.,0.,-0.00000
 811,0.,0.,-0.00004139,0.00000001,0.00000002,-0.00009199,0.,0.,0.000010
 72,0.,-0.00000002,0.00007867,0.00000076,-0.00000061,0.00378172,-0.0000
 0005,0.00000018,-0.00581007,0.00000024,-0.00000073,-0.01442546,-0.0000
 0086,0.00000125,0.01213455\\-0.00000180,-0.00000067,-0.00000023,0.0000
 0443,0.00000087,0.,0.00000176,0.00000089,-0.00000003,-0.00000245,-0.00
 000076,-0.00000005,0.00000419,0.00000108,0.00000049,-0.00000205,-0.000
 00434,-0.00000043,0.00000062,-0.00000135,0.00000005,-0.00000127,-0.000
 00095,0.,0.00000040,0.00000011,0.,-0.00000726,-0.00000619,0.00000017,0
 .00000292,0.00000247,-0.00000008,0.00000415,0.00000180,-0.00000003,-0.
 00000181,0.00000024,-0.00000027,-0.00000021,0.00000091,0.00000013,-0.0
 0000094,-0.00000031,-0.00000026,0.00000527,0.00000491,0.00000121,-0.00
 000197,-0.00000005,-0.00000025,-0.00000464,-0.00000032,-0.00000038,0.0
 0000065,0.00000166,-0.00000004\\\@


 ORIGINALITY CONSISTS NOT IN SAYING WHAT NO ONE HAS EVER SAID BEFORE, 
 BUT IN SAYING WHAT YOU THINK YOUR SELF.

                                    -- JAMES F. STEPHEN
 Job cpu time:  0 days 10 hours 11 minutes 47.3 seconds.
 File lengths (MBytes):  RWF=    430 Int=      0 D2E=      0 Chk=     18 Scr=      1
 Normal termination of Gaussian 09 at Fri Feb 17 18:35:01 2023.
