 Entering Link 1 = Z:\home\jakler\g09\G09W\l1.exe PID=       324.
  
 Copyright (c) 1988,1990,1992,1993,1995,1998,2003,2009,2013,
            Gaussian, Inc.  All Rights Reserved.
  
 This is part of the Gaussian(R) 09 program.  It is based on
 the Gaussian(R) 03 system (copyright 2003, Gaussian, Inc.),
 the Gaussian(R) 98 system (copyright 1998, Gaussian, Inc.),
 the Gaussian(R) 94 system (copyright 1995, Gaussian, Inc.),
 the Gaussian 92(TM) system (copyright 1992, Gaussian, Inc.),
 the Gaussian 90(TM) system (copyright 1990, Gaussian, Inc.),
 the Gaussian 88(TM) system (copyright 1988, Gaussian, Inc.),
 the Gaussian 86(TM) system (copyright 1986, Carnegie Mellon
 University), and the Gaussian 82(TM) system (copyright 1983,
 Carnegie Mellon University). Gaussian is a federally registered
 trademark of Gaussian, Inc.
  
 This software contains proprietary and confidential information,
 including trade secrets, belonging to Gaussian, Inc.
  
 This software is provided under written license and may be
 used, copied, transmitted, or stored only in accord with that
 written license.
  
 The following legend is applicable only to US Government
 contracts under FAR:
  
                    RESTRICTED RIGHTS LEGEND
  
 Use, reproduction and disclosure by the US Government is
 subject to restrictions as set forth in subparagraphs (a)
 and (c) of the Commercial Computer Software - Restricted
 Rights clause in FAR 52.227-19.
  
 Gaussian, Inc.
 340 Quinnipiac St., Bldg. 40, Wallingford CT 06492
  
  
 ---------------------------------------------------------------
 Warning -- This program may not be used in any manner that
 competes with the business of Gaussian, Inc. or will provide
 assistance to any competitor of Gaussian, Inc.  The licensee
 of this program is prohibited from giving any competitor of
 Gaussian, Inc. access to this program.  By using this program,
 the user acknowledges that Gaussian, Inc. is engaged in the
 business of creating and licensing software in the field of
 computational chemistry and represents and warrants to the
 licensee that it is not a competitor of Gaussian, Inc. and that
 it will not use this program in any manner prohibited above.
 ---------------------------------------------------------------
  

 Cite this work as:
 Gaussian 09, Revision D.01,
 M. J. Frisch, G. W. Trucks, H. B. Schlegel, G. E. Scuseria, 
 M. A. Robb, J. R. Cheeseman, G. Scalmani, V. Barone, B. Mennucci, 
 G. A. Petersson, H. Nakatsuji, M. Caricato, X. Li, H. P. Hratchian, 
 A. F. Izmaylov, J. Bloino, G. Zheng, J. L. Sonnenberg, M. Hada, 
 M. Ehara, K. Toyota, R. Fukuda, J. Hasegawa, M. Ishida, T. Nakajima, 
 Y. Honda, O. Kitao, H. Nakai, T. Vreven, J. A. Montgomery, Jr., 
 J. E. Peralta, F. Ogliaro, M. Bearpark, J. J. Heyd, E. Brothers, 
 K. N. Kudin, V. N. Staroverov, T. Keith, R. Kobayashi, J. Normand, 
 K. Raghavachari, A. Rendell, J. C. Burant, S. S. Iyengar, J. Tomasi, 
 M. Cossi, N. Rega, J. M. Millam, M. Klene, J. E. Knox, J. B. Cross, 
 V. Bakken, C. Adamo, J. Jaramillo, R. Gomperts, R. E. Stratmann, 
 O. Yazyev, A. J. Austin, R. Cammi, C. Pomelli, J. W. Ochterski, 
 R. L. Martin, K. Morokuma, V. G. Zakrzewski, G. A. Voth, 
 P. Salvador, J. J. Dannenberg, S. Dapprich, A. D. Daniels, 
 O. Farkas, J. B. Foresman, J. V. Ortiz, J. Cioslowski, 
 and D. J. Fox, Gaussian, Inc., Wallingford CT, 2013.
 
 ******************************************
 Gaussian 09:  IA32W-G09RevD.01 24-Apr-2013
                07-Feb-2023 
 ******************************************
 %nprocshared=8
 Will use up to    8 processors via shared memory.
 %chk=Z:\home\jakler\matheus\cf3_s0.chk
 ---------------------------------------------------------------------
 # opt=tight freq cam-b3lyp/gen scf=qc geom=connectivity int=ultrafine
 ---------------------------------------------------------------------
 1/7=10,14=-1,18=20,19=15,26=4,38=1,57=2/1,3;
 2/9=110,12=2,17=6,18=5,40=1/2;
 3/5=7,11=2,16=1,25=1,30=1,71=1,74=-40,75=-5/1,2,3;
 4//1;
 5/5=2,8=3,38=5/8;
 6/7=2,8=2,9=2,10=2,28=1/1;
 7//1,2,3,16;
 1/7=10,14=-1,18=20,19=15,26=4/3(2);
 2/9=110/2;
 99//99;
 2/9=110/2;
 3/5=7,6=1,11=2,16=1,25=1,30=1,71=1,74=-40,75=-5,82=7/1,2,3;
 4/5=5,16=3,69=1/1;
 5/5=2,8=3,38=5/8;
 7//1,2,3,16;
 1/7=10,14=-1,18=20,19=15,26=4/3(-5);
 2/9=110/2;
 6/7=2,8=2,9=2,10=2,19=2,28=1/1;
 99/9=1/99;
 ---------------------------
 NA+cf3 CAM-B3LYP def2-TZVPD
 ---------------------------
 Symbolic Z-matrix:
 Charge =  0 Multiplicity = 1
 C                    -1.22053  -0.18724   0. 
 C                    -0.38069  -1.29017   0.00057 
 C                    -0.88266  -2.57771   0.00147 
 C                    -2.247    -2.77352  -0.00062 
 C                    -3.12908  -1.69168  -0.00335 
 C                    -2.56677  -0.41276  -0.00157 
 H                    -0.82374   0.81635   0.00313 
 H                    -0.19893  -3.41243   0.00321 
 H                    -2.64765  -3.77872  -0.00463 
 N                     1.06034  -1.0779    0.00311 
 O                     1.77791  -2.05813   0.00628 
 O                     1.46377   0.06835   0.00219 
 N                    -4.48492  -1.83918  -0.04298 
 H                    -4.88143  -2.73312   0.18331 
 H                    -5.05725  -1.03465   0.14282 
 C                    -3.54312   0.77815   0.0057 
 F                    -4.33477   0.7177   -1.08615 
 F                    -4.30623   0.72765   1.11818 
 F                    -2.84426   1.9331   -0.00856 
 

 GradGradGradGradGradGradGradGradGradGradGradGradGradGradGradGradGradGrad
 Berny optimization.
 Initialization pass.
                           ----------------------------
                           !    Initial Parameters    !
                           ! (Angstroms and Degrees)  !
 --------------------------                            --------------------------
 ! Name  Definition              Value          Derivative Info.                !
 --------------------------------------------------------------------------------
 ! R1    R(1,2)                  1.3863         estimate D2E/DX2                !
 ! R2    R(1,6)                  1.365          estimate D2E/DX2                !
 ! R3    R(1,7)                  1.0792         estimate D2E/DX2                !
 ! R4    R(2,3)                  1.3819         estimate D2E/DX2                !
 ! R5    R(2,10)                 1.4566         estimate D2E/DX2                !
 ! R6    R(3,4)                  1.3783         estimate D2E/DX2                !
 ! R7    R(3,8)                  1.079          estimate D2E/DX2                !
 ! R8    R(4,5)                  1.3959         estimate D2E/DX2                !
 ! R9    R(4,9)                  1.0821         estimate D2E/DX2                !
 ! R10   R(5,6)                  1.3971         estimate D2E/DX2                !
 ! R11   R(5,13)                 1.3644         estimate D2E/DX2                !
 ! R12   R(6,16)                 1.54           estimate D2E/DX2                !
 ! R13   R(10,11)                1.2148         estimate D2E/DX2                !
 ! R14   R(10,12)                1.2152         estimate D2E/DX2                !
 ! R15   R(13,14)                1.0038         estimate D2E/DX2                !
 ! R16   R(13,15)                1.0047         estimate D2E/DX2                !
 ! R17   R(16,17)                1.35           estimate D2E/DX2                !
 ! R18   R(16,18)                1.35           estimate D2E/DX2                !
 ! R19   R(16,19)                1.35           estimate D2E/DX2                !
 ! A1    A(2,1,6)              117.7778         estimate D2E/DX2                !
 ! A2    A(2,1,7)              121.1396         estimate D2E/DX2                !
 ! A3    A(6,1,7)              121.0824         estimate D2E/DX2                !
 ! A4    A(1,2,3)              121.4129         estimate D2E/DX2                !
 ! A5    A(1,2,10)             118.9081         estimate D2E/DX2                !
 ! A6    A(3,2,10)             119.6789         estimate D2E/DX2                !
 ! A7    A(2,3,4)              119.4666         estimate D2E/DX2                !
 ! A8    A(2,3,8)              119.3791         estimate D2E/DX2                !
 ! A9    A(4,3,8)              121.1542         estimate D2E/DX2                !
 ! A10   A(3,4,5)              121.0249         estimate D2E/DX2                !
 ! A11   A(3,4,9)              119.8986         estimate D2E/DX2                !
 ! A12   A(5,4,9)              119.076          estimate D2E/DX2                !
 ! A13   A(4,5,6)              117.0738         estimate D2E/DX2                !
 ! A14   A(4,5,13)             122.972          estimate D2E/DX2                !
 ! A15   A(6,5,13)             119.9306         estimate D2E/DX2                !
 ! A16   A(1,6,5)              123.2437         estimate D2E/DX2                !
 ! A17   A(1,6,16)             119.8355         estimate D2E/DX2                !
 ! A18   A(5,6,16)             116.9201         estimate D2E/DX2                !
 ! A19   A(2,10,11)            117.826          estimate D2E/DX2                !
 ! A20   A(2,10,12)            117.769          estimate D2E/DX2                !
 ! A21   A(11,10,12)           124.405          estimate D2E/DX2                !
 ! A22   A(5,13,14)            118.8327         estimate D2E/DX2                !
 ! A23   A(5,13,15)            118.3046         estimate D2E/DX2                !
 ! A24   A(14,13,15)           116.5164         estimate D2E/DX2                !
 ! A25   A(6,16,17)            109.4712         estimate D2E/DX2                !
 ! A26   A(6,16,18)            109.4712         estimate D2E/DX2                !
 ! A27   A(6,16,19)            109.4712         estimate D2E/DX2                !
 ! A28   A(17,16,18)           109.4713         estimate D2E/DX2                !
 ! A29   A(17,16,19)           109.4712         estimate D2E/DX2                !
 ! A30   A(18,16,19)           109.4712         estimate D2E/DX2                !
 ! D1    D(6,1,2,3)             -0.0914         estimate D2E/DX2                !
 ! D2    D(6,1,2,10)          -179.9605         estimate D2E/DX2                !
 ! D3    D(7,1,2,3)            179.7621         estimate D2E/DX2                !
 ! D4    D(7,1,2,10)            -0.107          estimate D2E/DX2                !
 ! D5    D(2,1,6,5)             -0.0365         estimate D2E/DX2                !
 ! D6    D(2,1,6,16)           179.6588         estimate D2E/DX2                !
 ! D7    D(7,1,6,5)           -179.89           estimate D2E/DX2                !
 ! D8    D(7,1,6,16)            -0.1948         estimate D2E/DX2                !
 ! D9    D(1,2,3,4)              0.116          estimate D2E/DX2                !
 ! D10   D(1,2,3,8)           -179.9196         estimate D2E/DX2                !
 ! D11   D(10,2,3,4)           179.9841         estimate D2E/DX2                !
 ! D12   D(10,2,3,8)            -0.0515         estimate D2E/DX2                !
 ! D13   D(1,2,10,11)          179.8556         estimate D2E/DX2                !
 ! D14   D(1,2,10,12)           -0.1305         estimate D2E/DX2                !
 ! D15   D(3,2,10,11)           -0.0158         estimate D2E/DX2                !
 ! D16   D(3,2,10,12)          179.9981         estimate D2E/DX2                !
 ! D17   D(2,3,4,5)             -0.013          estimate D2E/DX2                !
 ! D18   D(2,3,4,9)            179.7128         estimate D2E/DX2                !
 ! D19   D(8,3,4,5)           -179.9767         estimate D2E/DX2                !
 ! D20   D(8,3,4,9)             -0.2509         estimate D2E/DX2                !
 ! D21   D(3,4,5,6)             -0.1061         estimate D2E/DX2                !
 ! D22   D(3,4,5,13)           178.1226         estimate D2E/DX2                !
 ! D23   D(9,4,5,6)           -179.8341         estimate D2E/DX2                !
 ! D24   D(9,4,5,13)            -1.6054         estimate D2E/DX2                !
 ! D25   D(4,5,6,1)              0.133          estimate D2E/DX2                !
 ! D26   D(4,5,6,16)          -179.5704         estimate D2E/DX2                !
 ! D27   D(13,5,6,1)          -178.1523         estimate D2E/DX2                !
 ! D28   D(13,5,6,16)            2.1442         estimate D2E/DX2                !
 ! D29   D(4,5,13,14)           16.8153         estimate D2E/DX2                !
 ! D30   D(4,5,13,15)          167.8967         estimate D2E/DX2                !
 ! D31   D(6,5,13,14)         -165.0047         estimate D2E/DX2                !
 ! D32   D(6,5,13,15)          -13.9232         estimate D2E/DX2                !
 ! D33   D(1,6,16,17)          120.9682         estimate D2E/DX2                !
 ! D34   D(1,6,16,18)         -119.0318         estimate D2E/DX2                !
 ! D35   D(1,6,16,19)            0.9682         estimate D2E/DX2                !
 ! D36   D(5,6,16,17)          -59.3177         estimate D2E/DX2                !
 ! D37   D(5,6,16,18)           60.6823         estimate D2E/DX2                !
 ! D38   D(5,6,16,19)         -179.3177         estimate D2E/DX2                !
 --------------------------------------------------------------------------------
 Trust Radius=3.00D-01 FncErr=1.00D-07 GrdErr=1.00D-06
 Number of steps in this run=     97 maximum allowed number of steps=    114.
 GradGradGradGradGradGradGradGradGradGradGradGradGradGradGradGradGradGrad

                          Input orientation:                          
 ---------------------------------------------------------------------
 Center     Atomic      Atomic             Coordinates (Angstroms)
 Number     Number       Type             X           Y           Z
 ---------------------------------------------------------------------
      1          6           0       -1.220527   -0.187240    0.000000
      2          6           0       -0.380691   -1.290173    0.000568
      3          6           0       -0.882663   -2.577709    0.001469
      4          6           0       -2.246998   -2.773521   -0.000618
      5          6           0       -3.129076   -1.691685   -0.003354
      6          6           0       -2.566768   -0.412762   -0.001566
      7          1           0       -0.823736    0.816351    0.003132
      8          1           0       -0.198927   -3.412431    0.003210
      9          1           0       -2.647648   -3.778721   -0.004632
     10          7           0        1.060345   -1.077902    0.003115
     11          8           0        1.777910   -2.058131    0.006279
     12          8           0        1.463767    0.068353    0.002190
     13          7           0       -4.484923   -1.839175   -0.042981
     14          1           0       -4.881426   -2.733122    0.183307
     15          1           0       -5.057252   -1.034648    0.142822
     16          6           0       -3.543122    0.778153    0.005700
     17          9           0       -4.334766    0.717702   -1.086155
     18          9           0       -4.306233    0.727645    1.118179
     19          9           0       -2.844263    1.933095   -0.008556
 ---------------------------------------------------------------------
                    Distance matrix (angstroms):
                    1          2          3          4          5
     1  C    0.000000
     2  C    1.386285   0.000000
     3  C    2.414228   1.381929   0.000000
     4  C    2.782533   2.383993   1.378316   0.000000
     5  C    2.430211   2.777562   2.414836   1.395865   0.000000
     6  C    1.365001   2.355587   2.742848   2.382317   1.397081
     7  H    1.079189   2.152612   3.394572   3.861718   3.406593
     8  H    3.383125   2.130029   1.079008   2.145417   3.398056
     9  H    3.864639   3.366303   2.134863   1.082111   2.141844
    10  N    2.448605   1.456588   2.454527   3.716672   4.234149
    11  O    3.534246   2.291145   2.710836   4.087996   4.920659
    12  O    2.696436   2.290768   3.536578   4.673974   4.918533
    13  N    3.658827   4.141017   3.677456   2.425511   1.364421
    14  H    4.462880   4.729917   4.005912   2.641150   2.046990
    15  H    3.931788   4.685697   4.452888   3.307836   2.042285
    16  C    2.515247   3.778753   4.282508   3.780789   2.504319
    17  F    3.420108   4.565878   4.894862   4.210202   2.903668
    18  F    3.407187   4.553079   4.888072   4.213113   2.914909
    19  F    2.670658   4.056936   4.918875   4.744368   3.635956
                    6          7          8          9         10
     6  C    0.000000
     7  H    2.132816   0.000000
     8  H    3.821610   4.274691   0.000000
     9  H    3.366932   4.943825   2.475977   0.000000
    10  N    3.687598   2.671695   2.652506   4.587341   0.000000
    11  O    4.645807   3.877011   2.396251   4.748274   1.214808
    12  O    4.059150   2.406693   3.857513   5.630609   1.215175
    13  N    2.390750   4.523078   4.565854   2.671870   5.597468
    14  H    3.282665   5.394078   4.734944   2.473533   6.170646
    15  H    2.571012   4.622593   5.410791   3.654842   6.119345
    16  C    1.540000   2.719656   5.361403   4.644037   4.963553
    17  F    2.362223   3.677446   5.945576   4.922792   5.789466
    18  F    2.362223   3.657730   5.937453   4.931424   5.770921
    19  F    2.362224   2.308633   5.964276   5.715201   4.930740
                   11         12         13         14         15
    11  O    0.000000
    12  O    2.149567   0.000000
    13  N    6.266852   6.247209   0.000000
    14  H    6.695798   6.938483   1.003774   0.000000
    15  H    6.912713   6.615140   1.004663   1.708030   0.000000
    16  C    6.029750   5.056953   2.782043   3.761868   2.365933
    17  F    6.801725   5.935414   2.765571   3.717332   2.259004
    18  F    6.783337   5.913798   2.822904   3.630667   2.149658
    19  F    6.106930   4.694305   4.113754   5.095138   3.705096
                   16         17         18         19
    16  C    0.000000
    17  F    1.350000   0.000000
    18  F    1.350000   2.204541   0.000000
    19  F    1.350000   2.204541   2.204541   0.000000
 Stoichiometry    C7H5F3N2O2
 Framework group  C1[X(C7H5F3N2O2)]
 Deg. of freedom    51
 Full point group                 C1      NOp   1
 Largest Abelian subgroup         C1      NOp   1
 Largest concise Abelian subgroup C1      NOp   1
                         Standard orientation:                         
 ---------------------------------------------------------------------
 Center     Atomic      Atomic             Coordinates (Angstroms)
 Number     Number       Type             X           Y           Z
 ---------------------------------------------------------------------
      1          6           0       -0.516770   -0.634480   -0.003427
      2          6           0       -1.663085    0.145100   -0.001625
      3          6           0       -1.595440    1.525371    0.000223
      4          6           0       -0.363674    2.143838   -0.002148
      5          6           0        0.816008    1.397667   -0.006114
      6          6           0        0.688413    0.006425   -0.005246
      7          1           0       -0.574730   -1.712108   -0.001031
      8          1           0       -2.508639    2.100104    0.002913
      9          1           0       -0.302565    3.224217   -0.005426
     10          7           0       -2.962370   -0.513307    0.001217
     11          8           0       -3.953805    0.188688    0.005469
     12          8           0       -2.981368   -1.728333   -0.000564
     13          7           0        2.055030    1.967643   -0.046065
     14          1           0        2.147632    2.941034    0.180864
     15          1           0        2.853109    1.386073    0.138851
     16          6           0        1.992109   -0.813296    0.000664
     17          9           0        2.723052   -0.504077   -1.091401
     18          9           0        2.700447   -0.524133    1.112933
     19          9           0        1.695678   -2.130263   -0.014358
 ---------------------------------------------------------------------
 Rotational constants (GHZ):      1.2759951      0.4577714      0.3590431
 General basis read from cards:  (5D, 7F)
 There are   662 symmetry adapted cartesian basis functions of A   symmetry.
 There are   578 symmetry adapted basis functions of A   symmetry.
   578 basis functions,   882 primitive gaussians,   662 cartesian basis functions
    52 alpha electrons       52 beta electrons
       nuclear repulsion energy       931.5414160517 Hartrees.
 NAtoms=   19 NActive=   19 NUniq=   19 SFac= 1.00D+00 NAtFMM=   60 NAOKFM=F Big=F
 Integral buffers will be    262144 words long.
 Raffenetti 2 integral format.
 Two-electron integral symmetry is turned on.
 One-electron integrals computed using PRISM.
 PrsmSu:  requested number of processors reduced to:   4 ShMem   1 Linda.
 NBasis=   578 RedAO= T EigKep=  1.43D-06  NBF=   578
 NBsUse=   575 1.00D-06 EigRej=  7.73D-07 NBFU=   575
 ExpMin= 4.85D-02 ExpMax= 3.55D+04 ExpMxC= 1.21D+03 IAcc=3 IRadAn=         5 AccDes= 0.00D+00
 Harris functional with IExCor=20419 and IRadAn=       5 diagonalized for initial guess.
 HarFok:  IExCor=20419 AccDes= 0.00D+00 IRadAn=         5 IDoV= 1 UseB2=F ITyADJ=14
 ICtDFT=  3500011 ScaDFX=  1.000000  1.000000  1.000000  1.000000
 FoFCou: FMM=F IPFlag=           0 FMFlag=      100000 FMFlg1=           0
         NFxFlg=           0 DoJE=T BraDBF=F KetDBF=T FulRan=T
         wScrn=  0.000000 ICntrl=     500 IOpCl=  0 I1Cent=   200000004 NGrid=           0
         NMat0=    1 NMatS0=      1 NMatT0=    0 NMatD0=    1 NMtDS0=    0 NMtDT0=    0
 Petite list used in FoFCou.
 Gradient too large for Newton-Raphson -- use scaled steepest descent instead.
     Minimum is close to point  3 DX=  4.85D-02 DF= -3.78D-03 DXR=  8.85D-02 DFR=  7.71D-03 which will be used.
 Gradient too large for Newton-Raphson -- use scaled steepest descent instead.
     Minimum is close to point  3 DX=  5.83D-02 DF= -1.38D-04 DXR=  6.80D-02 DFR=  4.62D-03 which will be used.
 Gradient too large for Newton-Raphson -- use scaled steepest descent instead.
     Accept linear search using points  1 and  2.
 Gradient too large for Newton-Raphson -- use scaled steepest descent instead.
 Gradient too large for Newton-Raphson -- use scaled steepest descent instead.
     Accept linear search using points  1 and  2.
 LinEq1:  Iter=  0 NonCon=     1 RMS=3.94D-05 Max=2.83D-03 NDo=     1
 AX will form     1 AO Fock derivatives at one time.
 LinEq1:  Iter=  1 NonCon=     1 RMS=1.89D-05 Max=1.52D-03 NDo=     1
 LinEq1:  Iter=  2 NonCon=     1 RMS=8.29D-06 Max=4.76D-04 NDo=     1
 LinEq1:  Iter=  3 NonCon=     1 RMS=8.02D-06 Max=5.82D-04 NDo=     1
 LinEq1:  Iter=  4 NonCon=     1 RMS=2.52D-06 Max=1.10D-04 NDo=     1
 LinEq1:  Iter=  5 NonCon=     1 RMS=1.47D-06 Max=1.29D-04 NDo=     1
 LinEq1:  Iter=  6 NonCon=     1 RMS=5.15D-07 Max=2.97D-05 NDo=     1
 LinEq1:  Iter=  7 NonCon=     1 RMS=3.30D-07 Max=2.05D-05 NDo=     1
 LinEq1:  Iter=  8 NonCon=     1 RMS=1.42D-07 Max=5.95D-06 NDo=     1
 LinEq1:  Iter=  9 NonCon=     1 RMS=6.26D-08 Max=2.14D-06 NDo=     1
 LinEq1:  Iter= 10 NonCon=     1 RMS=2.73D-08 Max=1.01D-06 NDo=     1
 LinEq1:  Iter= 11 NonCon=     1 RMS=1.65D-08 Max=9.10D-07 NDo=     1
 LinEq1:  Iter= 12 NonCon=     1 RMS=6.17D-09 Max=3.14D-07 NDo=     1
 LinEq1:  Iter= 13 NonCon=     0 RMS=3.29D-09 Max=1.12D-07 NDo=     1
 Linear equations converged to 2.332D-08 2.332D-07 after    13 iterations.
     Minimum is close to point  2 DX=  1.66D-04 DF= -1.71D-12 DXR=  1.66D-04 DFR=  2.94D-08 which will be used.
 LinEq1:  Iter=  0 NonCon=     1 RMS=9.54D-08 Max=1.04D-05 NDo=     1
 LinEq1:  Iter=  1 NonCon=     1 RMS=4.67D-08 Max=2.96D-06 NDo=     1
 LinEq1:  Iter=  2 NonCon=     1 RMS=2.76D-08 Max=1.02D-06 NDo=     1
 LinEq1:  Iter=  3 NonCon=     1 RMS=1.13D-08 Max=7.76D-07 NDo=     1
 LinEq1:  Iter=  4 NonCon=     1 RMS=5.13D-09 Max=3.09D-07 NDo=     1
 LinEq1:  Iter=  5 NonCon=     1 RMS=3.74D-09 Max=2.17D-07 NDo=     1
 LinEq1:  Iter=  6 NonCon=     1 RMS=2.76D-09 Max=1.91D-07 NDo=     1
 LinEq1:  Iter=  7 NonCon=     1 RMS=1.44D-09 Max=8.69D-08 NDo=     1
 LinEq1:  Iter=  8 NonCon=     1 RMS=5.88D-10 Max=2.10D-08 NDo=     1
 LinEq1:  Iter=  9 NonCon=     1 RMS=2.93D-10 Max=1.52D-08 NDo=     1
 LinEq1:  Iter= 10 NonCon=     1 RMS=1.21D-10 Max=5.19D-09 NDo=     1
 LinEq1:  Iter= 11 NonCon=     1 RMS=5.71D-11 Max=3.25D-09 NDo=     1
 LinEq1:  Iter= 12 NonCon=     0 RMS=2.97D-11 Max=1.20D-09 NDo=     1
 Linear equations converged to 1.537D-10 1.537D-09 after    12 iterations.
 SCF Done:  E(RCAM-B3LYP) =  -829.202778439     a.u. after    8 cycles
            Convg  =    0.1522D-08                    42 Fock formations.
              S**2 =  0.0000                  -V/T =  2.0037

 **********************************************************************

            Population analysis using the SCF density.

 **********************************************************************

 Orbital symmetries:
       Occupied  (A) (A) (A) (A) (A) (A) (A) (A) (A) (A) (A) (A)
                 (A) (A) (A) (A) (A) (A) (A) (A) (A) (A) (A) (A)
                 (A) (A) (A) (A) (A) (A) (A) (A) (A) (A) (A) (A)
                 (A) (A) (A) (A) (A) (A) (A) (A) (A) (A) (A) (A)
                 (A) (A) (A) (A)
       Virtual   (A) (A) (A) (A) (A) (A) (A) (A) (A) (A) (A) (A)
                 (A) (A) (A) (A) (A) (A) (A) (A) (A) (A) (A) (A)
                 (A) (A) (A) (A) (A) (A) (A) (A) (A) (A) (A) (A)
                 (A) (A) (A) (A) (A) (A) (A) (A) (A) (A) (A) (A)
                 (A) (A) (A) (A) (A) (A) (A) (A) (A) (A) (A) (A)
                 (A) (A) (A) (A) (A) (A) (A) (A) (A) (A) (A) (A)
                 (A) (A) (A) (A) (A) (A) (A) (A) (A) (A) (A) (A)
                 (A) (A) (A) (A) (A) (A) (A) (A) (A) (A) (A) (A)
                 (A) (A) (A) (A) (A) (A) (A) (A) (A) (A) (A) (A)
                 (A) (A) (A) (A) (A) (A) (A) (A) (A) (A) (A) (A)
                 (A) (A) (A) (A) (A) (A) (A) (A) (A) (A) (A) (A)
                 (A) (A) (A) (A) (A) (A) (A) (A) (A) (A) (A) (A)
                 (A) (A) (A) (A) (A) (A) (A) (A) (A) (A) (A) (A)
                 (A) (A) (A) (A) (A) (A) (A) (A) (A) (A) (A) (A)
                 (A) (A) (A) (A) (A) (A) (A) (A) (A) (A) (A) (A)
                 (A) (A) (A) (A) (A) (A) (A) (A) (A) (A) (A) (A)
                 (A) (A) (A) (A) (A) (A) (A) (A) (A) (A) (A) (A)
                 (A) (A) (A) (A) (A) (A) (A) (A) (A) (A) (A) (A)
                 (A) (A) (A) (A) (A) (A) (A) (A) (A) (A) (A) (A)
                 (A) (A) (A) (A) (A) (A) (A) (A) (A) (A) (A) (A)
                 (A) (A) (A) (A) (A) (A) (A) (A) (A) (A) (A) (A)
                 (A) (A) (A) (A) (A) (A) (A) (A) (A) (A) (A) (A)
                 (A) (A) (A) (A) (A) (A) (A) (A) (A) (A) (A) (A)
                 (A) (A) (A) (A) (A) (A) (A) (A) (A) (A) (A) (A)
                 (A) (A) (A) (A) (A) (A) (A) (A) (A) (A) (A) (A)
                 (A) (A) (A) (A) (A) (A) (A) (A) (A) (A) (A) (A)
                 (A) (A) (A) (A) (A) (A) (A) (A) (A) (A) (A) (A)
                 (A) (A) (A) (A) (A) (A) (A) (A) (A) (A) (A) (A)
                 (A) (A) (A) (A) (A) (A) (A) (A) (A) (A) (A) (A)
                 (A) (A) (A) (A) (A) (A) (A) (A) (A) (A) (A) (A)
                 (A) (A) (A) (A) (A) (A) (A) (A) (A) (A) (A) (A)
                 (A) (A) (A) (A) (A) (A) (A) (A) (A) (A) (A) (A)
                 (A) (A) (A) (A) (A) (A) (A) (A) (A) (A) (A) (A)
                 (A) (A) (A) (A) (A) (A) (A) (A) (A) (A) (A) (A)
                 (A) (A) (A) (A) (A) (A) (A) (A) (A) (A) (A) (A)
                 (A) (A) (A) (A) (A) (A) (A) (A) (A) (A) (A) (A)
                 (A) (A) (A) (A) (A) (A) (A) (A) (A) (A) (A) (A)
                 (A) (A) (A) (A) (A) (A) (A) (A) (A) (A) (A) (A)
                 (A) (A) (A) (A) (A) (A) (A) (A) (A) (A) (A) (A)
                 (A) (A) (A) (A) (A) (A) (A) (A) (A) (A) (A) (A)
                 (A) (A) (A) (A) (A) (A) (A) (A) (A) (A) (A) (A)
                 (A) (A) (A) (A) (A) (A) (A) (A) (A) (A) (A) (A)
                 (A) (A) (A) (A) (A) (A) (A) (A) (A) (A) (A) (A)
                 (A) (A) (A) (A) (A) (A) (A)
 The electronic state is 1-A.
 Alpha  occ. eigenvalues --  -24.82063 -24.81656 -24.81390 -19.23428 -19.23407
 Alpha  occ. eigenvalues --  -14.63639 -14.43441 -10.52994 -10.34031 -10.31325
 Alpha  occ. eigenvalues --  -10.29506 -10.29382 -10.29145 -10.28091  -1.42154
 Alpha  occ. eigenvalues --   -1.33892  -1.33513  -1.32709  -1.14707  -1.05649
 Alpha  occ. eigenvalues --   -0.98598  -0.90605  -0.88522  -0.81501  -0.78697
 Alpha  occ. eigenvalues --   -0.74612  -0.71383  -0.69725  -0.69240  -0.66307
 Alpha  occ. eigenvalues --   -0.63503  -0.62568  -0.62380  -0.62026  -0.59318
 Alpha  occ. eigenvalues --   -0.57643  -0.57528  -0.54885  -0.54471  -0.54156
 Alpha  occ. eigenvalues --   -0.52853  -0.51881  -0.51126  -0.50021  -0.49199
 Alpha  occ. eigenvalues --   -0.44461  -0.42607  -0.38753  -0.38491  -0.37047
 Alpha  occ. eigenvalues --   -0.35764  -0.30551
 Alpha virt. eigenvalues --   -0.04925  -0.00693   0.01493   0.03571   0.03629
 Alpha virt. eigenvalues --    0.03918   0.06141   0.06394   0.06857   0.07008
 Alpha virt. eigenvalues --    0.09388   0.09698   0.09810   0.10501   0.10789
 Alpha virt. eigenvalues --    0.11921   0.12746   0.13297   0.13564   0.14016
 Alpha virt. eigenvalues --    0.14850   0.15524   0.16087   0.16369   0.16831
 Alpha virt. eigenvalues --    0.17492   0.18182   0.18564   0.19383   0.19470
 Alpha virt. eigenvalues --    0.19564   0.20133   0.21267   0.21839   0.22624
 Alpha virt. eigenvalues --    0.22649   0.23158   0.23786   0.23982   0.24791
 Alpha virt. eigenvalues --    0.25178   0.25534   0.26054   0.26424   0.26807
 Alpha virt. eigenvalues --    0.27090   0.27299   0.27823   0.28444   0.28692
 Alpha virt. eigenvalues --    0.30168   0.30480   0.30775   0.30980   0.31158
 Alpha virt. eigenvalues --    0.32086   0.32405   0.33099   0.33871   0.34494
 Alpha virt. eigenvalues --    0.34808   0.35206   0.35532   0.36277   0.36481
 Alpha virt. eigenvalues --    0.37029   0.37913   0.38117   0.38344   0.38890
 Alpha virt. eigenvalues --    0.39390   0.39675   0.40185   0.40966   0.41367
 Alpha virt. eigenvalues --    0.41533   0.42651   0.42742   0.43447   0.44231
 Alpha virt. eigenvalues --    0.44723   0.44941   0.45813   0.46348   0.46737
 Alpha virt. eigenvalues --    0.47264   0.48067   0.48280   0.49164   0.49492
 Alpha virt. eigenvalues --    0.49653   0.49983   0.52113   0.52610   0.52916
 Alpha virt. eigenvalues --    0.53507   0.54696   0.55183   0.55402   0.55983
 Alpha virt. eigenvalues --    0.56558   0.57226   0.57417   0.58325   0.59042
 Alpha virt. eigenvalues --    0.60114   0.60732   0.60828   0.61389   0.62306
 Alpha virt. eigenvalues --    0.62437   0.63108   0.63767   0.64287   0.64657
 Alpha virt. eigenvalues --    0.65383   0.65819   0.66030   0.66828   0.67258
 Alpha virt. eigenvalues --    0.67429   0.68532   0.68963   0.69095   0.69588
 Alpha virt. eigenvalues --    0.70716   0.70878   0.71271   0.71500   0.72078
 Alpha virt. eigenvalues --    0.72998   0.73494   0.73747   0.74265   0.75483
 Alpha virt. eigenvalues --    0.75897   0.76408   0.76810   0.77388   0.78130
 Alpha virt. eigenvalues --    0.78309   0.79299   0.79741   0.80731   0.81247
 Alpha virt. eigenvalues --    0.82052   0.82649   0.82822   0.83356   0.84652
 Alpha virt. eigenvalues --    0.84866   0.85274   0.85992   0.86461   0.87550
 Alpha virt. eigenvalues --    0.88249   0.88402   0.89076   0.90814   0.91210
 Alpha virt. eigenvalues --    0.92161   0.93739   0.95000   0.95398   0.96040
 Alpha virt. eigenvalues --    0.96930   0.98028   0.98280   0.99205   0.99667
 Alpha virt. eigenvalues --    1.01009   1.01753   1.02269   1.03067   1.03549
 Alpha virt. eigenvalues --    1.03792   1.04606   1.05653   1.06343   1.06904
 Alpha virt. eigenvalues --    1.07863   1.09611   1.10891   1.11377   1.13056
 Alpha virt. eigenvalues --    1.13900   1.15890   1.16740   1.17089   1.18856
 Alpha virt. eigenvalues --    1.19895   1.21193   1.21772   1.23472   1.25114
 Alpha virt. eigenvalues --    1.26802   1.27528   1.28218   1.29069   1.29802
 Alpha virt. eigenvalues --    1.31530   1.32530   1.33152   1.34972   1.36019
 Alpha virt. eigenvalues --    1.37397   1.38746   1.39430   1.40566   1.42079
 Alpha virt. eigenvalues --    1.42610   1.43789   1.45751   1.46837   1.49341
 Alpha virt. eigenvalues --    1.50763   1.51134   1.51888   1.52082   1.53791
 Alpha virt. eigenvalues --    1.54550   1.56392   1.58959   1.59547   1.61052
 Alpha virt. eigenvalues --    1.62558   1.64425   1.66554   1.67696   1.68973
 Alpha virt. eigenvalues --    1.70035   1.72412   1.73137   1.76349   1.77122
 Alpha virt. eigenvalues --    1.80434   1.80716   1.81548   1.81952   1.85017
 Alpha virt. eigenvalues --    1.85586   1.86915   1.88202   1.91286   1.91715
 Alpha virt. eigenvalues --    1.94347   1.95084   1.97324   1.97462   1.99010
 Alpha virt. eigenvalues --    1.99261   2.01384   2.01621   2.05096   2.05393
 Alpha virt. eigenvalues --    2.08290   2.09143   2.11261   2.12086   2.13788
 Alpha virt. eigenvalues --    2.15037   2.17936   2.19139   2.19852   2.20483
 Alpha virt. eigenvalues --    2.23749   2.26676   2.28954   2.29668   2.30538
 Alpha virt. eigenvalues --    2.33374   2.33744   2.34957   2.35738   2.36087
 Alpha virt. eigenvalues --    2.37828   2.38645   2.39399   2.42020   2.42482
 Alpha virt. eigenvalues --    2.43743   2.45151   2.45198   2.46536   2.48820
 Alpha virt. eigenvalues --    2.51270   2.52163   2.54286   2.56423   2.58839
 Alpha virt. eigenvalues --    2.61224   2.63782   2.65177   2.67009   2.67259
 Alpha virt. eigenvalues --    2.68656   2.71099   2.71682   2.73646   2.74559
 Alpha virt. eigenvalues --    2.77271   2.80937   2.83037   2.84670   2.86185
 Alpha virt. eigenvalues --    2.86955   2.87989   2.89299   2.90663   2.91573
 Alpha virt. eigenvalues --    2.92301   2.93634   2.95199   2.95511   2.96071
 Alpha virt. eigenvalues --    2.98837   2.99495   3.01877   3.05217   3.05732
 Alpha virt. eigenvalues --    3.06945   3.08829   3.10218   3.12988   3.13163
 Alpha virt. eigenvalues --    3.13856   3.14709   3.15150   3.18180   3.18615
 Alpha virt. eigenvalues --    3.19147   3.21930   3.24640   3.25114   3.25880
 Alpha virt. eigenvalues --    3.30261   3.30639   3.31375   3.33490   3.36070
 Alpha virt. eigenvalues --    3.36187   3.37477   3.38159   3.40365   3.40778
 Alpha virt. eigenvalues --    3.41400   3.41878   3.43277   3.46166   3.47040
 Alpha virt. eigenvalues --    3.48003   3.48891   3.50547   3.52201   3.52522
 Alpha virt. eigenvalues --    3.53448   3.54241   3.56645   3.58444   3.58651
 Alpha virt. eigenvalues --    3.60273   3.61265   3.62036   3.62653   3.63097
 Alpha virt. eigenvalues --    3.64506   3.67279   3.67714   3.71943   3.73973
 Alpha virt. eigenvalues --    3.75225   3.76624   3.77120   3.78955   3.85433
 Alpha virt. eigenvalues --    3.87728   3.89817   3.91433   3.94197   3.96608
 Alpha virt. eigenvalues --    3.97162   3.99346   4.01295   4.02840   4.03626
 Alpha virt. eigenvalues --    4.09320   4.09954   4.10572   4.13708   4.14137
 Alpha virt. eigenvalues --    4.16210   4.20828   4.21542   4.23213   4.24904
 Alpha virt. eigenvalues --    4.27986   4.29438   4.30550   4.33507   4.35724
 Alpha virt. eigenvalues --    4.38463   4.38837   4.39541   4.43074   4.46357
 Alpha virt. eigenvalues --    4.48888   4.49790   4.50772   4.55010   4.58231
 Alpha virt. eigenvalues --    4.63674   4.66459   4.70802   4.74870   4.75710
 Alpha virt. eigenvalues --    4.77801   4.78950   4.83207   4.85455   4.88779
 Alpha virt. eigenvalues --    4.90799   4.91184   4.93047   4.96132   4.98396
 Alpha virt. eigenvalues --    4.99115   5.04602   5.06572   5.14618   5.16663
 Alpha virt. eigenvalues --    5.18394   5.20595   5.23853   5.25278   5.27144
 Alpha virt. eigenvalues --    5.29628   5.32658   5.37240   5.41268   5.41961
 Alpha virt. eigenvalues --    5.43848   5.47146   5.49569   5.51718   5.54625
 Alpha virt. eigenvalues --    5.56210   5.59720   5.66990   5.70803   5.71886
 Alpha virt. eigenvalues --    5.72601   5.74522   5.80569   5.81982   5.97839
 Alpha virt. eigenvalues --    6.10703   6.11626   6.19856   6.44929   6.46136
 Alpha virt. eigenvalues --    6.53240   6.59868   6.61912   6.64159   6.87889
 Alpha virt. eigenvalues --    6.89424   6.89723   6.90299   6.91244   6.93732
 Alpha virt. eigenvalues --    6.93843   6.94823   6.95128   6.95969   6.97333
 Alpha virt. eigenvalues --    6.99272   7.06182   7.07720   7.11597   7.13561
 Alpha virt. eigenvalues --    7.16466   7.18126   7.23176   7.32985   7.42271
 Alpha virt. eigenvalues --    7.46844   7.47491   7.51448   7.58036   7.61751
 Alpha virt. eigenvalues --    7.63101   7.66143   7.79320   7.83178   8.52425
 Alpha virt. eigenvalues --    8.54569   8.56995   8.63534   8.67960   8.69712
 Alpha virt. eigenvalues --    8.80393   8.84187   8.90196   8.95093   9.15995
 Alpha virt. eigenvalues --    9.21330   9.26373   9.38923   9.43847  22.75043
 Alpha virt. eigenvalues --   22.92796  23.00960  23.05580  23.16726  23.28778
 Alpha virt. eigenvalues --   23.60226  32.50177  32.88941  44.48444  44.69049
 Alpha virt. eigenvalues --   57.69994  57.70712  57.90125
          Condensed to atoms (all electrons):
               1          2          3          4          5          6
     1  C    6.218843   0.203950  -0.158476  -0.133548   0.107448   0.441616
     2  C    0.203950   6.370609   0.309996  -0.144106   0.118689  -0.630925
     3  C   -0.158476   0.309996   6.275038   0.234763  -0.356911  -0.106361
     4  C   -0.133548  -0.144106   0.234763   6.952339  -0.348138  -0.538690
     5  C    0.107448   0.118689  -0.356911  -0.348138   6.411890   0.113736
     6  C    0.441616  -0.630925  -0.106361  -0.538690   0.113736   7.933485
     7  H    0.199961  -0.058008   0.005675   0.004137   0.009978  -0.085559
     8  H    0.002099  -0.103114   0.303607  -0.058798   0.010968   0.002747
     9  H   -0.004341   0.031653  -0.044900   0.433823  -0.215582  -0.010621
    10  N   -0.233427   0.546362  -0.212654  -0.002153   0.007836  -0.010269
    11  O    0.028202  -0.119533   0.053965   0.004310  -0.004791  -0.011447
    12  O   -0.001360  -0.070901   0.022648  -0.000755  -0.006976   0.004099
    13  N    0.000118  -0.004194  -0.018658  -0.091596   0.212532  -0.032615
    14  H   -0.004415   0.001629   0.001106   0.033962  -0.093094  -0.012124
    15  H    0.005052   0.003426   0.000891   0.006908  -0.032570  -0.037599
    16  C   -0.450463  -0.110984   0.009569   0.180139  -0.415230  -1.049262
    17  F    0.001908   0.004258  -0.001314   0.001980   0.020053   0.025510
    18  F    0.008638   0.007033  -0.000354  -0.001112   0.005338   0.063272
    19  F    0.007968  -0.009746  -0.002201  -0.001841  -0.005825   0.114008
               7          8          9         10         11         12
     1  C    0.199961   0.002099  -0.004341  -0.233427   0.028202  -0.001360
     2  C   -0.058008  -0.103114   0.031653   0.546362  -0.119533  -0.070901
     3  C    0.005675   0.303607  -0.044900  -0.212654   0.053965   0.022648
     4  C    0.004137  -0.058798   0.433823  -0.002153   0.004310  -0.000755
     5  C    0.009978   0.010968  -0.215582   0.007836  -0.004791  -0.006976
     6  C   -0.085559   0.002747  -0.010621  -0.010269  -0.011447   0.004099
     7  H    0.382926   0.000614  -0.000359   0.002822  -0.002850   0.000049
     8  H    0.000614   0.388569  -0.009333   0.009395  -0.009022  -0.002608
     9  H   -0.000359  -0.009333   0.512536  -0.000955   0.000469   0.000063
    10  N    0.002822   0.009395  -0.000955   5.824659   0.079436   0.090979
    11  O   -0.002850  -0.009022   0.000469   0.079436   8.676592  -0.106469
    12  O    0.000049  -0.002608   0.000063   0.090979  -0.106469   8.661392
    13  N   -0.000138  -0.000230   0.005245  -0.000144   0.000080   0.000112
    14  H    0.000032  -0.000362   0.011234  -0.000065  -0.000009   0.000014
    15  H   -0.000881   0.000169   0.000574   0.000004   0.000023   0.000019
    16  C   -0.024607  -0.001677   0.003454  -0.006912   0.001596  -0.003110
    17  F    0.004915   0.000003  -0.000524   0.000023   0.000011  -0.000033
    18  F    0.005487  -0.000016  -0.000177  -0.000007   0.000003  -0.000022
    19  F   -0.020362  -0.000068   0.000165  -0.000046  -0.000046  -0.000266
              13         14         15         16         17         18
     1  C    0.000118  -0.004415   0.005052  -0.450463   0.001908   0.008638
     2  C   -0.004194   0.001629   0.003426  -0.110984   0.004258   0.007033
     3  C   -0.018658   0.001106   0.000891   0.009569  -0.001314  -0.000354
     4  C   -0.091596   0.033962   0.006908   0.180139   0.001980  -0.001112
     5  C    0.212532  -0.093094  -0.032570  -0.415230   0.020053   0.005338
     6  C   -0.032615  -0.012124  -0.037599  -1.049262   0.025510   0.063272
     7  H   -0.000138   0.000032  -0.000881  -0.024607   0.004915   0.005487
     8  H   -0.000230  -0.000362   0.000169  -0.001677   0.000003  -0.000016
     9  H    0.005245   0.011234   0.000574   0.003454  -0.000524  -0.000177
    10  N   -0.000144  -0.000065   0.000004  -0.006912   0.000023  -0.000007
    11  O    0.000080  -0.000009   0.000023   0.001596   0.000011   0.000003
    12  O    0.000112   0.000014   0.000019  -0.003110  -0.000033  -0.000022
    13  N    6.585761   0.359472   0.344727   0.030989  -0.013781  -0.011616
    14  H    0.359472   0.560441  -0.069432   0.012833   0.003545   0.001382
    15  H    0.344727  -0.069432   0.519881   0.023214   0.011185   0.029107
    16  C    0.030989   0.012833   0.023214   6.786652   0.042799  -0.020614
    17  F   -0.013781   0.003545   0.011185   0.042799   9.266636  -0.034707
    18  F   -0.011616   0.001382   0.029107  -0.020614  -0.034707   9.283820
    19  F    0.001911  -0.000011   0.001986   0.051757  -0.048010  -0.044082
              19
     1  C    0.007968
     2  C   -0.009746
     3  C   -0.002201
     4  C   -0.001841
     5  C   -0.005825
     6  C    0.114008
     7  H   -0.020362
     8  H   -0.000068
     9  H    0.000165
    10  N   -0.000046
    11  O   -0.000046
    12  O   -0.000266
    13  N    0.001911
    14  H   -0.000011
    15  H    0.001986
    16  C    0.051757
    17  F   -0.048010
    18  F   -0.044082
    19  F    9.251191
 Mulliken charges:
               1
     1  C   -0.239771
     2  C   -0.346094
     3  C   -0.315428
     4  C   -0.531626
     5  C    0.460649
     6  C   -0.173003
     7  H    0.576171
     8  H    0.467058
     9  H    0.287576
    10  N    0.905116
    11  O   -0.590519
    12  O   -0.586875
    13  N   -0.367975
    14  H    0.193862
    15  H    0.193316
    16  C    0.939858
    17  F   -0.284455
    18  F   -0.291376
    19  F   -0.296485
 Sum of Mulliken charges =   0.00000
 Mulliken charges with hydrogens summed into heavy atoms:
               1
     1  C    0.336400
     2  C   -0.346094
     3  C    0.151630
     4  C   -0.244050
     5  C    0.460649
     6  C   -0.173003
    10  N    0.905116
    11  O   -0.590519
    12  O   -0.586875
    13  N    0.019203
    16  C    0.939858
    17  F   -0.284455
    18  F   -0.291376
    19  F   -0.296485
 Electronic spatial extent (au):  <R**2>=           2818.9346
 Charge=              0.0000 electrons
 Dipole moment (field-independent basis, Debye):
    X=              4.3396    Y=              4.2870    Z=              0.5474  Tot=              6.1245
 Quadrupole moment (field-independent basis, Debye-Ang):
   XX=            -93.0687   YY=            -71.0620   ZZ=            -80.1256
   XY=              0.1338   XZ=              1.6155   YZ=              1.4216
 Traceless Quadrupole moment (field-independent basis, Debye-Ang):
   XX=            -11.6499   YY=             10.3568   ZZ=              1.2931
   XY=              0.1338   XZ=              1.6155   YZ=              1.4216
 Octapole moment (field-independent basis, Debye-Ang**2):
  XXX=            118.0697  YYY=             18.2452  ZZZ=              0.3240  XYY=             26.8323
  XXY=             24.3625  XXZ=              4.0879  XZZ=              2.4937  YZZ=            -12.7583
  YYZ=              3.8415  XYZ=              3.7430
 Hexadecapole moment (field-independent basis, Debye-Ang**3):
 XXXX=          -2575.4895 YYYY=           -778.9153 ZZZZ=           -148.2150 XXXY=            -29.3755
 XXXZ=             12.3417 YYYX=             -1.3839 YYYZ=             10.7682 ZZZX=              0.9322
 ZZZY=              1.0098 XXYY=           -519.2768 XXZZ=           -407.7046 YYZZ=           -181.5856
 XXYZ=              9.4025 YYXZ=              9.6008 ZZXY=             -5.0723
 N-N= 9.315414160517D+02 E-N=-3.814141294019D+03  KE= 8.261539464287D+02
 PrsmSu:  requested number of processors reduced to:   4 ShMem   1 Linda.
 Calling FoFJK, ICntrl=      2127 FMM=F ISym2X=0 I1Cent= 0 IOpClX= 0 NMat=1 NMatS=1 NMatT=0.
 ***** Axes restored to original set *****
 -------------------------------------------------------------------
 Center     Atomic                   Forces (Hartrees/Bohr)
 Number     Number              X              Y              Z
 -------------------------------------------------------------------
      1        6           0.006885432   -0.007095990   -0.000029083
      2        6           0.002127483    0.005213466    0.000013943
      3        6          -0.004046672    0.000182016   -0.000008640
      4        6          -0.000456970   -0.004864343    0.000004532
      5        6           0.000391142   -0.001407920   -0.000354235
      6        6          -0.023471415    0.025013861    0.000280763
      7        1           0.001256549   -0.001791974   -0.000035652
      8        1           0.000106837   -0.000226456    0.000006764
      9        1           0.000513029   -0.000460182   -0.000002510
     10        7           0.000817802    0.000320465    0.000020807
     11        8          -0.000066523   -0.000348110   -0.000006738
     12        8          -0.000221772   -0.000598149   -0.000003588
     13        7           0.003644955   -0.005976545    0.001190551
     14        1          -0.000182462   -0.000379617   -0.000258715
     15        1          -0.002753560   -0.005766030   -0.000006206
     16        6           0.041451897   -0.020593510   -0.004037566
     17        9          -0.001487245    0.012953859    0.012775845
     18        9          -0.003519047    0.012281326   -0.010294344
     19        9          -0.020989458   -0.006456168    0.000744072
 -------------------------------------------------------------------
 Cartesian Forces:  Max     0.041451897 RMS     0.009071539

 GradGradGradGradGradGradGradGradGradGradGradGradGradGradGradGradGradGrad
 Berny optimization.
 FormGI is forming the generalized inverse of G from B-inverse, IUseBI=4.
 Internal  Forces:  Max     0.022200229 RMS     0.007605018
 Search for a local minimum.
 Step number   1 out of a maximum of   97
 All quantities printed in internal units (Hartrees-Bohrs-Radians)
 Mixed Optimization -- RFO/linear search
 Second derivative matrix not updated -- first step.
 ITU=  0
     Eigenvalues ---    0.00237   0.00943   0.00943   0.01542   0.01896
     Eigenvalues ---    0.02142   0.02162   0.02197   0.02258   0.02313
     Eigenvalues ---    0.02352   0.02372   0.02433   0.03045   0.11243
     Eigenvalues ---    0.11243   0.16000   0.16000   0.16000   0.16000
     Eigenvalues ---    0.16000   0.22375   0.23499   0.24612   0.24987
     Eigenvalues ---    0.25000   0.25000   0.25000   0.25000   0.25000
     Eigenvalues ---    0.25000   0.25000   0.28519   0.35740   0.36093
     Eigenvalues ---    0.36114   0.37395   0.42967   0.43893   0.46878
     Eigenvalues ---    0.47031   0.47165   0.47517   0.48823   0.51195
     Eigenvalues ---    0.52064   0.55021   0.55021   0.55021   0.97553
     Eigenvalues ---    0.97721
 RFO step:  Lambda=-1.72865743D-02 EMin= 2.36824099D-03
 Linear search not attempted -- first point.
 Iteration  1 RMS(Cart)=  0.09128593 RMS(Int)=  0.00361187
 Iteration  2 RMS(Cart)=  0.00478161 RMS(Int)=  0.00062446
 Iteration  3 RMS(Cart)=  0.00001818 RMS(Int)=  0.00062435
 Iteration  4 RMS(Cart)=  0.00000002 RMS(Int)=  0.00062435
 Variable       Old X    -DE/DX   Delta X   Delta X   Delta X     New X
                                 (Linear)    (Quad)   (Total)
    R1        2.61970  -0.00311   0.00000  -0.00697  -0.00695   2.61275
    R2        2.57948   0.00995   0.00000   0.01965   0.01975   2.59923
    R3        2.03937  -0.00120   0.00000  -0.00318  -0.00318   2.03619
    R4        2.61147  -0.00105   0.00000  -0.00390  -0.00398   2.60749
    R5        2.75255   0.00043   0.00000   0.00111   0.00111   2.75366
    R6        2.60464  -0.00389   0.00000  -0.00874  -0.00884   2.59580
    R7        2.03903   0.00024   0.00000   0.00064   0.00064   2.03967
    R8        2.63780   0.00276   0.00000   0.00641   0.00639   2.64419
    R9        2.04489   0.00024   0.00000   0.00063   0.00063   2.04553
   R10        2.64010   0.01944   0.00000   0.04257   0.04266   2.68276
   R11        2.57838   0.00058   0.00000   0.00108   0.00108   2.57946
   R12        2.91018  -0.01121   0.00000  -0.03705  -0.03705   2.87313
   R13        2.29566   0.00024   0.00000   0.00024   0.00024   2.29590
   R14        2.29635  -0.00064   0.00000  -0.00064  -0.00064   2.29571
   R15        1.89686   0.00035   0.00000   0.00072   0.00072   1.89758
   R16        1.89854  -0.00305   0.00000  -0.00628  -0.00628   1.89226
   R17        2.55113  -0.01004   0.00000  -0.01769  -0.01769   2.53344
   R18        2.55113  -0.00695   0.00000  -0.01225  -0.01225   2.53888
   R19        2.55113  -0.01640   0.00000  -0.02889  -0.02889   2.52224
    A1        2.05561   0.00743   0.00000   0.03149   0.03161   2.08722
    A2        2.11429  -0.00558   0.00000  -0.02625  -0.02631   2.08797
    A3        2.11329  -0.00185   0.00000  -0.00524  -0.00530   2.10799
    A4        2.11906  -0.00005   0.00000  -0.00566  -0.00572   2.11333
    A5        2.07534   0.00127   0.00000   0.00748   0.00751   2.08284
    A6        2.08879  -0.00122   0.00000  -0.00182  -0.00178   2.08701
    A7        2.08509   0.00189   0.00000   0.00070   0.00052   2.08560
    A8        2.08356  -0.00088   0.00000   0.00000   0.00009   2.08365
    A9        2.11454  -0.00101   0.00000  -0.00070  -0.00061   2.11393
   A10        2.11228   0.00270   0.00000   0.00945   0.00933   2.12161
   A11        2.09263  -0.00201   0.00000  -0.00845  -0.00839   2.08423
   A12        2.07827  -0.00069   0.00000  -0.00099  -0.00093   2.07734
   A13        2.04332   0.00070   0.00000   0.00665   0.00671   2.05004
   A14        2.14627  -0.02113   0.00000  -0.08109  -0.08112   2.06515
   A15        2.09318   0.02043   0.00000   0.07445   0.07442   2.16761
   A16        2.15101  -0.01267   0.00000  -0.04263  -0.04245   2.10856
   A17        2.09152  -0.00953   0.00000  -0.03804  -0.03813   2.05339
   A18        2.04064   0.02220   0.00000   0.08068   0.08059   2.12123
   A19        2.05645  -0.00039   0.00000  -0.00145  -0.00145   2.05500
   A20        2.05546   0.00018   0.00000   0.00068   0.00068   2.05614
   A21        2.17128   0.00021   0.00000   0.00077   0.00077   2.17205
   A22        2.07402  -0.00297   0.00000  -0.01530  -0.01535   2.05867
   A23        2.06480   0.00726   0.00000   0.04240   0.04235   2.10715
   A24        2.03360  -0.00352   0.00000  -0.01822  -0.01828   2.01531
   A25        1.91063   0.01973   0.00000   0.07395   0.07138   1.98201
   A26        1.91063   0.01869   0.00000   0.06912   0.06673   1.97737
   A27        1.91063   0.01860   0.00000   0.07028   0.06771   1.97835
   A28        1.91063  -0.01964   0.00000  -0.07482  -0.07694   1.83369
   A29        1.91063  -0.01866   0.00000  -0.06819  -0.07059   1.84004
   A30        1.91063  -0.01873   0.00000  -0.07034  -0.07244   1.83819
    D1       -0.00159  -0.00001   0.00000   0.00037   0.00031  -0.00128
    D2       -3.14090  -0.00006   0.00000  -0.00074  -0.00077   3.14151
    D3        3.13744   0.00016   0.00000   0.00302   0.00296   3.14040
    D4       -0.00187   0.00012   0.00000   0.00192   0.00187   0.00001
    D5       -0.00064   0.00019   0.00000   0.00293   0.00293   0.00230
    D6        3.13564   0.00036   0.00000   0.00541   0.00534   3.14097
    D7       -3.13967   0.00002   0.00000   0.00031   0.00029  -3.13938
    D8       -0.00340   0.00019   0.00000   0.00279   0.00269  -0.00071
    D9        0.00202  -0.00009   0.00000  -0.00155  -0.00158   0.00045
   D10       -3.14019   0.00000   0.00000  -0.00056  -0.00055  -3.14074
   D11        3.14132  -0.00004   0.00000  -0.00043  -0.00048   3.14084
   D12       -0.00090   0.00005   0.00000   0.00056   0.00055  -0.00035
   D13        3.13907   0.00003   0.00000   0.00081   0.00081   3.13988
   D14       -0.00228   0.00002   0.00000   0.00039   0.00038  -0.00190
   D15       -0.00028  -0.00001   0.00000  -0.00026  -0.00026  -0.00053
   D16        3.14156  -0.00003   0.00000  -0.00069  -0.00068   3.14088
   D17       -0.00023   0.00003   0.00000  -0.00045  -0.00041  -0.00064
   D18        3.13658   0.00020   0.00000   0.00220   0.00223   3.13881
   D19       -3.14119  -0.00006   0.00000  -0.00146  -0.00146   3.14054
   D20       -0.00438   0.00010   0.00000   0.00119   0.00118  -0.00320
   D21       -0.00185   0.00012   0.00000   0.00341   0.00345   0.00160
   D22        3.10883   0.00051   0.00000   0.00545   0.00546   3.11429
   D23       -3.13870  -0.00004   0.00000   0.00081   0.00084  -3.13786
   D24       -0.02802   0.00035   0.00000   0.00285   0.00285  -0.02517
   D25        0.00232  -0.00024   0.00000  -0.00479  -0.00475  -0.00243
   D26       -3.13410  -0.00032   0.00000  -0.00689  -0.00690  -3.14099
   D27       -3.10934   0.00014   0.00000  -0.00391  -0.00392  -3.11326
   D28        0.03742   0.00006   0.00000  -0.00600  -0.00606   0.03136
   D29        0.29348  -0.00104   0.00000  -0.02499  -0.02496   0.26852
   D30        2.93035  -0.00039   0.00000  -0.01139  -0.01133   2.91902
   D31       -2.87987  -0.00100   0.00000  -0.02415  -0.02421  -2.90408
   D32       -0.24301  -0.00035   0.00000  -0.01055  -0.01058  -0.25358
   D33        2.11129   0.00009   0.00000  -0.01132  -0.01125   2.10004
   D34       -2.07750  -0.00043   0.00000  -0.01534  -0.01537  -2.09287
   D35        0.01690  -0.00053   0.00000  -0.01613  -0.01628   0.00062
   D36       -1.03529   0.00015   0.00000  -0.00934  -0.00920  -1.04449
   D37        1.05911  -0.00037   0.00000  -0.01336  -0.01332   1.04579
   D38       -3.12968  -0.00047   0.00000  -0.01415  -0.01423   3.13927
         Item               Value     Threshold  Converged?
 Maximum Force            0.022200     0.000015     NO 
 RMS     Force            0.007605     0.000010     NO 
 Maximum Displacement     0.398957     0.000060     NO 
 RMS     Displacement     0.093044     0.000040     NO 
 Predicted change in Energy=-9.194633D-03
 GradGradGradGradGradGradGradGradGradGradGradGradGradGradGradGradGradGrad

                          Input orientation:                          
 ---------------------------------------------------------------------
 Center     Atomic      Atomic             Coordinates (Angstroms)
 Number     Number       Type             X           Y           Z
 ---------------------------------------------------------------------
      1          6           0       -1.236403   -0.195958    0.000088
      2          6           0       -0.393417   -1.291849    0.000792
      3          6           0       -0.895682   -2.577012    0.001710
      4          6           0       -2.255449   -2.771742    0.001396
      5          6           0       -3.149415   -1.695306    0.000927
      6          6           0       -2.598538   -0.386892   -0.001229
      7          1           0       -0.818861    0.797355    0.000496
      8          1           0       -0.212492   -3.412620    0.003044
      9          1           0       -2.648085   -3.780465   -0.000509
     10          7           0        1.048749   -1.083254    0.002084
     11          8           0        1.762405   -2.066494    0.004521
     12          8           0        1.455824    0.061347    0.000452
     13          7           0       -4.487194   -1.964476   -0.032169
     14          1           0       -4.784573   -2.899643    0.180804
     15          1           0       -5.158561   -1.245767    0.156003
     16          6           0       -3.484240    0.848881   -0.001125
     17          9           0       -4.299787    0.923761   -1.062532
     18          9           0       -4.294844    0.921493    1.067838
     19          9           0       -2.796432    1.992721   -0.000482
 ---------------------------------------------------------------------
                    Distance matrix (angstroms):
                    1          2          3          4          5
     1  C    0.000000
     2  C    1.382607   0.000000
     3  C    2.405308   1.379824   0.000000
     4  C    2.770039   2.378497   1.373639   0.000000
     5  C    2.430568   2.785374   2.420066   1.399247   0.000000
     6  C    1.375453   2.383593   2.774230   2.409404   1.419654
     7  H    1.077503   2.132083   3.375241   3.847368   3.412454
     8  H    3.375694   2.128475   1.079347   2.141120   3.402159
     9  H    3.852471   3.358086   2.125847   1.082446   2.144580
    10  N    2.451370   1.457173   2.451963   3.710621   4.242545
    11  O    3.534370   2.290776   2.706670   4.079281   4.925827
    12  O    2.704495   2.291469   3.534193   4.669040   4.928900
    13  N    3.700856   4.148798   3.643529   2.373497   1.364990
    14  H    4.464536   4.679708   3.906359   2.538704   2.038756
    15  H    4.063217   4.767895   4.468575   3.283377   2.064655
    16  C    2.478802   3.759776   4.293877   3.823459   2.566125
    17  F    3.430343   4.615118   4.997595   4.355227   3.051854
    18  F    3.426785   4.610706   4.993042   4.351600   3.049253
    19  F    2.687751   4.069752   4.949274   4.795078   3.704881
                    6          7          8          9         10
     6  C    0.000000
     7  H    2.137685   0.000000
     8  H    3.853344   4.253420   0.000000
     9  H    3.393935   4.929757   2.463217   0.000000
    10  N    3.713170   2.650407   2.648901   4.576192   0.000000
    11  O    4.673213   3.855461   2.390037   4.731823   1.214937
    12  O    4.079065   2.390795   3.853795   5.621530   1.214835
    13  N    2.461046   4.591889   4.513472   2.584790   5.605746
    14  H    3.335536   5.424682   4.604201   2.318038   6.112189
    15  H    2.704830   4.799118   5.402059   3.570949   6.211344
    16  C    1.520395   2.665877   5.372591   4.704253   4.927590
    17  F    2.395501   3.641820   6.053563   5.097623   5.811054
    18  F    2.394208   3.638281   6.048464   5.095252   5.805931
    19  F    2.387827   2.310776   5.991199   5.775092   4.924128
                   11         12         13         14         15
    11  O    0.000000
    12  O    2.149818   0.000000
    13  N    6.250539   6.278892   0.000000
    14  H    6.602131   6.909598   1.004156   0.000000
    15  H    6.971106   6.744096   1.001342   1.695815   0.000000
    16  C    6.002226   5.002444   2.986948   3.971825   2.686185
    17  F    6.843274   5.916143   3.072245   4.049608   2.632332
    18  F    6.837323   5.911797   3.094485   3.953195   2.504889
    19  F    6.104117   4.670319   4.303381   5.284013   4.011477
                   16         17         18         19
    16  C    0.000000
    17  F    1.340637   0.000000
    18  F    1.343516   2.130378   0.000000
    19  F    1.334710   2.128545   2.129337   0.000000
 Stoichiometry    C7H5F3N2O2
 Framework group  C1[X(C7H5F3N2O2)]
 Deg. of freedom    51
 Full point group                 C1      NOp   1
 Largest Abelian subgroup         C1      NOp   1
 Largest concise Abelian subgroup C1      NOp   1
                         Standard orientation:                         
 ---------------------------------------------------------------------
 Center     Atomic      Atomic             Coordinates (Angstroms)
 Number     Number       Type             X           Y           Z
 ---------------------------------------------------------------------
      1          6           0       -0.492575   -0.606995   -0.000658
      2          6           0       -1.663608    0.128045   -0.001110
      3          6           0       -1.638788    1.507644   -0.003108
      4          6           0       -0.431218    2.162361   -0.005208
      5          6           0        0.780870    1.463267   -0.004610
      6          6           0        0.718535    0.044982   -0.003755
      7          1           0       -0.539269   -1.683482    0.002035
      8          1           0       -2.569597    2.054074   -0.002614
      9          1           0       -0.413230    3.244650   -0.009401
     10          7           0       -2.943638   -0.568281    0.002080
     11          8           0       -3.954274    0.106021    0.003434
     12          8           0       -2.927991   -1.783015    0.003004
     13          7           0        1.941964    2.180090   -0.039607
     14          1           0        1.896231    3.160778    0.171314
     15          1           0        2.821163    1.739582    0.149198
     16          6           0        1.978193   -0.806405   -0.002280
     17          9           0        2.768649   -0.595713   -1.064399
     18          9           0        2.763942   -0.590811    1.065968
     19          9           0        1.730307   -2.117889    0.001212
 ---------------------------------------------------------------------
 Rotational constants (GHZ):      1.2166809      0.4585836      0.3531526
 Basis read from rwf:  (5D, 7F)
 There are   662 symmetry adapted cartesian basis functions of A   symmetry.
 There are   578 symmetry adapted basis functions of A   symmetry.
   578 basis functions,   882 primitive gaussians,   662 cartesian basis functions
    52 alpha electrons       52 beta electrons
       nuclear repulsion energy       926.5784828825 Hartrees.
 NAtoms=   19 NActive=   19 NUniq=   19 SFac= 1.00D+00 NAtFMM=   60 NAOKFM=F Big=F
 Integral buffers will be    262144 words long.
 Raffenetti 2 integral format.
 Two-electron integral symmetry is turned on.
 One-electron integrals computed using PRISM.
 PrsmSu:  requested number of processors reduced to:   4 ShMem   1 Linda.
 NBasis=   578 RedAO= T EigKep=  1.45D-06  NBF=   578
 NBsUse=   575 1.00D-06 EigRej=  8.33D-07 NBFU=   575
 Initial guess from the checkpoint file:  "Z:\home\jakler\matheus\cf3_s0.chk"
 B after Tr=     0.000000    0.000000    0.000000
         Rot=    0.999957    0.001180   -0.000302   -0.009163 Ang=   1.06 deg.
 ExpMin= 4.85D-02 ExpMax= 3.55D+04 ExpMxC= 1.21D+03 IAcc=2 IRadAn=         4 AccDes= 0.00D+00
 Harris functional with IExCor=20419 and IRadAn=       4 diagonalized for initial guess.
 HarFok:  IExCor=20419 AccDes= 0.00D+00 IRadAn=         4 IDoV= 1 UseB2=F ITyADJ=14
 ICtDFT=  3500011 ScaDFX=  1.000000  1.000000  1.000000  1.000000
 FoFCou: FMM=F IPFlag=           0 FMFlag=      100000 FMFlg1=           0
         NFxFlg=           0 DoJE=T BraDBF=F KetDBF=T FulRan=T
         wScrn=  0.000000 ICntrl=     500 IOpCl=  0 I1Cent=   200000004 NGrid=           0
         NMat0=    1 NMatS0=      1 NMatT0=    0 NMatD0=    1 NMtDS0=    0 NMtDT0=    0
 Petite list used in FoFCou.
 Gradient too large for Newton-Raphson -- use scaled steepest descent instead.
     Accept linear search using points  3 and  4.
 Gradient too large for Newton-Raphson -- use scaled steepest descent instead.
 Gradient too large for Newton-Raphson -- use scaled steepest descent instead.
 Gradient too large for Newton-Raphson -- use scaled steepest descent instead.
     Minimum is close to point  2 DX= -1.75D-02 DF= -5.57D-06 DXR=  9.60D-02 DFR=  9.31D-03 which will be used.
 Gradient too large for Newton-Raphson -- use scaled steepest descent instead.
     Minimum is close to point  2 DX= -2.29D-03 DF= -6.71D-08 DXR=  1.16D-02 DFR=  1.34D-04 which will be used.
 Gradient too large for Newton-Raphson -- use scaled steepest descent instead.
     Minimum is close to point  2 DX=  1.45D-02 DF= -1.99D-06 DXR=  6.77D-02 DFR=  4.60D-03 which will be used.
 Gradient too large for Newton-Raphson -- use scaled steepest descent instead.
 Gradient too large for Newton-Raphson -- use scaled steepest descent instead.
 Restarting incremental Fock formation.
     Minimum is close to point  2 DX= -1.34D-02 DF= -1.78D-06 DXR=  7.18D-02 DFR=  5.19D-03 which will be used.
 Gradient too large for Newton-Raphson -- use scaled steepest descent instead.
     Minimum is close to point  2 DX= -1.33D-03 DF= -1.38D-08 DXR=  6.72D-03 DFR=  4.51D-05 which will be used.
 Gradient too large for Newton-Raphson -- use scaled steepest descent instead.
     Minimum is close to point  2 DX=  1.18D-02 DF= -8.58D-07 DXR=  5.58D-02 DFR=  3.12D-03 which will be used.
 Gradient too large for Newton-Raphson -- use scaled steepest descent instead.
 Gradient too large for Newton-Raphson -- use scaled steepest descent instead.
     Minimum is close to point  2 DX= -1.10D-02 DF= -7.66D-07 DXR=  5.80D-02 DFR=  3.38D-03 which will be used.
 Gradient too large for Newton-Raphson -- use scaled steepest descent instead.
     Minimum is close to point  2 DX= -6.10D-04 DF= -1.93D-09 DXR=  3.06D-03 DFR=  9.36D-06 which will be used.
 Gradient too large for Newton-Raphson -- use scaled steepest descent instead.
     Minimum is close to point  2 DX=  1.05D-02 DF= -4.66D-07 DXR=  4.98D-02 DFR=  2.48D-03 which will be used.
 Gradient too large for Newton-Raphson -- use scaled steepest descent instead.
 Gradient too large for Newton-Raphson -- use scaled steepest descent instead.
     Minimum is close to point  2 DX= -9.91D-03 DF= -4.31D-07 DXR=  5.21D-02 DFR=  2.73D-03 which will be used.
 Gradient too large for Newton-Raphson -- use scaled steepest descent instead.
 Restarting incremental Fock formation.
     Minimum is close to point  2 DX= -1.39D-03 DF= -7.05D-09 DXR=  6.98D-03 DFR=  4.88D-05 which will be used.
 Gradient too large for Newton-Raphson -- use scaled steepest descent instead.
     Minimum is close to point  2 DX=  7.38D-03 DF= -1.68D-07 DXR=  3.56D-02 DFR=  1.27D-03 which will be used.
 Gradient too large for Newton-Raphson -- use scaled steepest descent instead.
     Minimum is close to point  2 DX=  1.63D-02 DF= -6.96D-07 DXR=  7.53D-02 DFR=  5.70D-03 which will be used.
 Gradient too large for Newton-Raphson -- use scaled steepest descent instead.
 Gradient too large for Newton-Raphson -- use scaled steepest descent instead.
     Minimum is close to point  2 DX= -1.45D-02 DF= -6.40D-07 DXR=  7.80D-02 DFR=  6.12D-03 which will be used.
 Gradient too large for Newton-Raphson -- use scaled steepest descent instead.
     Minimum is close to point  2 DX= -9.04D-03 DF= -2.17D-07 DXR=  4.73D-02 DFR=  2.25D-03 which will be used.
 Gradient too large for Newton-Raphson -- use scaled steepest descent instead.
     Minimum is close to point  2 DX= -3.82D-03 DF= -3.38D-08 DXR=  1.95D-02 DFR=  3.79D-04 which will be used.
 Gradient too large for Newton-Raphson -- use scaled steepest descent instead.
     Minimum is close to point  2 DX=  1.13D-03 DF= -2.63D-09 DXR=  5.64D-03 DFR=  3.18D-05 which will be used.
 Gradient too large for Newton-Raphson -- use scaled steepest descent instead.
     Minimum is close to point  2 DX=  5.77D-03 DF= -6.02D-08 DXR=  2.80D-02 DFR=  7.86D-04 which will be used.
 Gradient too large for Newton-Raphson -- use scaled steepest descent instead.
 Restarting incremental Fock formation.
     Minimum is close to point  2 DX=  1.00D-02 DF= -1.63D-07 DXR=  4.78D-02 DFR=  2.29D-03 which will be used.
 Gradient too large for Newton-Raphson -- use scaled steepest descent instead.
     Minimum is close to point  2 DX=  1.39D-02 DF= -2.81D-07 DXR=  6.51D-02 DFR=  4.26D-03 which will be used.
 Gradient too large for Newton-Raphson -- use scaled steepest descent instead.
     Minimum is close to point  2 DX=  1.74D-02 DF= -3.97D-07 DXR=  8.01D-02 DFR=  6.46D-03 which will be used.
 Gradient too large for Newton-Raphson -- use scaled steepest descent instead.
     Minimum is close to point  2 DX=  2.05D-02 DF= -5.00D-07 DXR=  9.31D-02 DFR=  8.74D-03 which will be used.
 Gradient too large for Newton-Raphson -- use scaled steepest descent instead.
 Gradient too large for Newton-Raphson -- use scaled steepest descent instead.
     Minimum is close to point  2 DX= -1.73D-02 DF= -4.50D-07 DXR=  9.46D-02 DFR=  9.04D-03 which will be used.
 Gradient too large for Newton-Raphson -- use scaled steepest descent instead.
     Minimum is close to point  2 DX= -1.60D-02 DF= -3.51D-07 DXR=  8.67D-02 DFR=  7.57D-03 which will be used.
 Gradient too large for Newton-Raphson -- use scaled steepest descent instead.
     Minimum is close to point  2 DX= -1.48D-02 DF= -2.79D-07 DXR=  8.00D-02 DFR=  6.44D-03 which will be used.
 Gradient too large for Newton-Raphson -- use scaled steepest descent instead.
     Minimum is close to point  2 DX= -1.39D-02 DF= -2.25D-07 DXR=  7.44D-02 DFR=  5.57D-03 which will be used.
 Gradient too large for Newton-Raphson -- use scaled steepest descent instead.
     Minimum is close to point  2 DX= -1.31D-02 DF= -1.85D-07 DXR=  6.98D-02 DFR=  4.90D-03 which will be used.
 Gradient too large for Newton-Raphson -- use scaled steepest descent instead.
 Restarting incremental Fock formation.
     Minimum is close to point  2 DX= -1.24D-02 DF= -1.55D-07 DXR=  6.61D-02 DFR=  4.39D-03 which will be used.
 Gradient too large for Newton-Raphson -- use scaled steepest descent instead.
     Minimum is close to point  2 DX= -1.19D-02 DF= -1.32D-07 DXR=  6.30D-02 DFR=  3.99D-03 which will be used.
 Gradient too large for Newton-Raphson -- use scaled steepest descent instead.
     Minimum is close to point  2 DX= -1.14D-02 DF= -1.14D-07 DXR=  6.06D-02 DFR=  3.69D-03 which will be used.
 Gradient too large for Newton-Raphson -- use scaled steepest descent instead.
     Minimum is close to point  2 DX= -1.11D-02 DF= -1.00D-07 DXR=  5.87D-02 DFR=  3.46D-03 which will be used.
 Gradient too large for Newton-Raphson -- use scaled steepest descent instead.
     Minimum is close to point  2 DX= -1.08D-02 DF= -8.92D-08 DXR=  5.72D-02 DFR=  3.28D-03 which will be used.
 Gradient too large for Newton-Raphson -- use scaled steepest descent instead.
     Minimum is close to point  2 DX= -1.06D-02 DF= -8.04D-08 DXR=  5.61D-02 DFR=  3.16D-03 which will be used.
 Gradient too large for Newton-Raphson -- use scaled steepest descent instead.
     Minimum is close to point  2 DX= -1.05D-02 DF= -7.32D-08 DXR=  5.53D-02 DFR=  3.06D-03 which will be used.
 Gradient too large for Newton-Raphson -- use scaled steepest descent instead.
     Minimum is close to point  2 DX= -1.04D-02 DF= -6.72D-08 DXR=  5.47D-02 DFR=  3.00D-03 which will be used.
 Gradient too large for Newton-Raphson -- use scaled steepest descent instead.
     Minimum is close to point  2 DX= -1.03D-02 DF= -6.22D-08 DXR=  5.43D-02 DFR=  2.96D-03 which will be used.
 Gradient too large for Newton-Raphson -- use scaled steepest descent instead.
     Minimum is close to point  2 DX= -1.03D-02 DF= -5.79D-08 DXR=  5.41D-02 DFR=  2.93D-03 which will be used.
 Gradient too large for Newton-Raphson -- use scaled steepest descent instead.
 Restarting incremental Fock formation.
     Minimum is close to point  2 DX= -1.02D-02 DF= -5.42D-08 DXR=  5.40D-02 DFR=  2.92D-03 which will be used.
 Gradient too large for Newton-Raphson -- use scaled steepest descent instead.
     Minimum is close to point  2 DX= -1.02D-02 DF= -5.10D-08 DXR=  5.40D-02 DFR=  2.93D-03 which will be used.
 Gradient too large for Newton-Raphson -- use scaled steepest descent instead.
     Minimum is close to point  2 DX= -1.03D-02 DF= -4.81D-08 DXR=  5.41D-02 DFR=  2.94D-03 which will be used.
 Gradient too large for Newton-Raphson -- use scaled steepest descent instead.
     Minimum is close to point  2 DX= -1.03D-02 DF= -4.54D-08 DXR=  5.42D-02 DFR=  2.95D-03 which will be used.
 Gradient too large for Newton-Raphson -- use scaled steepest descent instead.
     Minimum is close to point  2 DX= -1.03D-02 DF= -4.30D-08 DXR=  5.44D-02 DFR=  2.97D-03 which will be used.
 Gradient too large for Newton-Raphson -- use scaled steepest descent instead.
     Minimum is close to point  2 DX= -1.04D-02 DF= -4.07D-08 DXR=  5.46D-02 DFR=  2.99D-03 which will be used.
 Gradient too large for Newton-Raphson -- use scaled steepest descent instead.
     Minimum is close to point  2 DX= -1.04D-02 DF= -3.86D-08 DXR=  5.49D-02 DFR=  3.02D-03 which will be used.
 Gradient too large for Newton-Raphson -- use scaled steepest descent instead.
     Minimum is close to point  2 DX= -1.04D-02 DF= -3.67D-08 DXR=  5.51D-02 DFR=  3.04D-03 which will be used.
 Gradient too large for Newton-Raphson -- use scaled steepest descent instead.
     Minimum is close to point  2 DX= -1.05D-02 DF= -3.48D-08 DXR=  5.53D-02 DFR=  3.07D-03 which will be used.
 Gradient too large for Newton-Raphson -- use scaled steepest descent instead.
     Minimum is close to point  2 DX= -1.05D-02 DF= -3.30D-08 DXR=  5.55D-02 DFR=  3.09D-03 which will be used.
 Gradient too large for Newton-Raphson -- use scaled steepest descent instead.
 Restarting incremental Fock formation.
     Minimum is close to point  2 DX= -1.06D-02 DF= -3.13D-08 DXR=  5.57D-02 DFR=  3.12D-03 which will be used.
 Gradient too large for Newton-Raphson -- use scaled steepest descent instead.
     Minimum is close to point  2 DX= -1.06D-02 DF= -2.97D-08 DXR=  5.59D-02 DFR=  3.14D-03 which will be used.
 Gradient too large for Newton-Raphson -- use scaled steepest descent instead.
     Minimum is close to point  2 DX= -1.06D-02 DF= -2.81D-08 DXR=  5.61D-02 DFR=  3.16D-03 which will be used.
 Gradient too large for Newton-Raphson -- use scaled steepest descent instead.
     Minimum is close to point  2 DX= -1.06D-02 DF= -2.66D-08 DXR=  5.62D-02 DFR=  3.17D-03 which will be used.
 Gradient too large for Newton-Raphson -- use scaled steepest descent instead.
     Minimum is close to point  2 DX= -1.07D-02 DF= -2.52D-08 DXR=  5.63D-02 DFR=  3.18D-03 which will be used.
 Gradient too large for Newton-Raphson -- use scaled steepest descent instead.
     Minimum is close to point  2 DX= -1.07D-02 DF= -2.38D-08 DXR=  5.64D-02 DFR=  3.19D-03 which will be used.
 Gradient too large for Newton-Raphson -- use scaled steepest descent instead.
     Minimum is close to point  2 DX= -1.07D-02 DF= -2.25D-08 DXR=  5.65D-02 DFR=  3.20D-03 which will be used.
 Gradient too large for Newton-Raphson -- use scaled steepest descent instead.
     Minimum is close to point  2 DX= -1.07D-02 DF= -2.13D-08 DXR=  5.65D-02 DFR=  3.20D-03 which will be used.
 Gradient too large for Newton-Raphson -- use scaled steepest descent instead.
     Minimum is close to point  2 DX= -1.07D-02 DF= -2.01D-08 DXR=  5.65D-02 DFR=  3.21D-03 which will be used.
 Gradient too large for Newton-Raphson -- use scaled steepest descent instead.
     Minimum is close to point  2 DX= -1.07D-02 DF= -1.89D-08 DXR=  5.65D-02 DFR=  3.20D-03 which will be used.
 Gradient too large for Newton-Raphson -- use scaled steepest descent instead.
 Restarting incremental Fock formation.
     Minimum is close to point  2 DX= -1.07D-02 DF= -1.78D-08 DXR=  5.64D-02 DFR=  3.20D-03 which will be used.
 Gradient too large for Newton-Raphson -- use scaled steepest descent instead.
     Minimum is close to point  2 DX= -1.07D-02 DF= -1.68D-08 DXR=  5.64D-02 DFR=  3.19D-03 which will be used.
 Gradient too large for Newton-Raphson -- use scaled steepest descent instead.
     Minimum is close to point  2 DX= -1.07D-02 DF= -1.58D-08 DXR=  5.63D-02 DFR=  3.18D-03 which will be used.
 Gradient too large for Newton-Raphson -- use scaled steepest descent instead.
     Minimum is close to point  2 DX= -1.06D-02 DF= -1.48D-08 DXR=  5.62D-02 DFR=  3.16D-03 which will be used.
 Gradient too large for Newton-Raphson -- use scaled steepest descent instead.
     Minimum is close to point  2 DX= -1.06D-02 DF= -1.39D-08 DXR=  5.60D-02 DFR=  3.15D-03 which will be used.
 Gradient too large for Newton-Raphson -- use scaled steepest descent instead.
     Minimum is close to point  2 DX= -1.06D-02 DF= -1.31D-08 DXR=  5.59D-02 DFR=  3.13D-03 which will be used.
 Gradient too large for Newton-Raphson -- use scaled steepest descent instead.
     Minimum is close to point  2 DX= -1.05D-02 DF= -1.22D-08 DXR=  5.57D-02 DFR=  3.11D-03 which will be used.
 Gradient too large for Newton-Raphson -- use scaled steepest descent instead.
     Minimum is close to point  2 DX= -1.05D-02 DF= -1.15D-08 DXR=  5.55D-02 DFR=  3.09D-03 which will be used.
 Gradient too large for Newton-Raphson -- use scaled steepest descent instead.
     Minimum is close to point  2 DX= -1.05D-02 DF= -1.08D-08 DXR=  5.53D-02 DFR=  3.07D-03 which will be used.
 Gradient too large for Newton-Raphson -- use scaled steepest descent instead.
     Minimum is close to point  2 DX= -1.04D-02 DF= -1.01D-08 DXR=  5.51D-02 DFR=  3.04D-03 which will be used.
 Gradient too large for Newton-Raphson -- use scaled steepest descent instead.
 Restarting incremental Fock formation.
     Minimum is close to point  2 DX= -1.04D-02 DF= -9.46D-09 DXR=  5.48D-02 DFR=  3.02D-03 which will be used.
 Gradient too large for Newton-Raphson -- use scaled steepest descent instead.
     Minimum is close to point  2 DX= -1.04D-02 DF= -8.86D-09 DXR=  5.46D-02 DFR=  2.99D-03 which will be used.
 LinEq1:  Iter=  0 NonCon=     1 RMS=2.86D-05 Max=1.03D-03 NDo=     1
 AX will form     1 AO Fock derivatives at one time.
 LinEq1:  Iter=  1 NonCon=     1 RMS=3.31D-06 Max=1.77D-04 NDo=     1
 LinEq1:  Iter=  2 NonCon=     1 RMS=2.67D-06 Max=2.78D-04 NDo=     1
 LinEq1:  Iter=  3 NonCon=     1 RMS=9.21D-07 Max=4.33D-05 NDo=     1
 LinEq1:  Iter=  4 NonCon=     1 RMS=6.75D-07 Max=4.33D-05 NDo=     1
 LinEq1:  Iter=  5 NonCon=     1 RMS=5.53D-07 Max=4.24D-05 NDo=     1
 LinEq1:  Iter=  6 NonCon=     1 RMS=3.10D-07 Max=1.21D-05 NDo=     1
 LinEq1:  Iter=  7 NonCon=     1 RMS=1.40D-07 Max=6.16D-06 NDo=     1
 LinEq1:  Iter=  8 NonCon=     1 RMS=1.02D-07 Max=6.19D-06 NDo=     1
 LinEq1:  Iter=  9 NonCon=     1 RMS=4.17D-08 Max=1.71D-06 NDo=     1
 LinEq1:  Iter= 10 NonCon=     1 RMS=2.72D-08 Max=1.90D-06 NDo=     1
 LinEq1:  Iter= 11 NonCon=     1 RMS=1.17D-08 Max=6.75D-07 NDo=     1
 LinEq1:  Iter= 12 NonCon=     1 RMS=6.04D-09 Max=3.12D-07 NDo=     1
 LinEq1:  Iter= 13 NonCon=     0 RMS=3.02D-09 Max=1.93D-07 NDo=     1
 Linear equations converged to 2.332D-08 2.332D-07 after    13 iterations.
     Accept linear search using points  1 and  2.
[...]
 17,0.00232840,0.00002491,-0.06147488,-0.00511353,-0.00166877,0.1288644
 4,-0.01342248,-0.04211859,0.00060856,0.01592406,0.01769077,-0.00029318
 ,-0.05248114,0.01527142,0.00083793,-0.17438937,0.10605772,0.00113234,0
 .74778842,-0.09445116,0.02856824,0.00117439,0.01627097,-0.07700652,0.0
 0009442,0.06764662,0.05995714,-0.00085285,0.04138281,-0.24895683,-0.00
 023174,0.01048860,0.68641621,0.00032033,-0.00010320,0.00355054,0.00058
 892,0.00051422,-0.00632347,-0.00049523,-0.00041366,0.00149864,0.001887
 94,-0.00200084,-0.07322551,-0.01018340,-0.00130786,0.17641666,-0.34721
 751,-0.06590291,0.00197050,-0.05388532,0.06822865,0.00023931,-0.040790
 20,-0.03781322,0.00044738,0.05935298,-0.00250648,-0.00050566,-0.150051
 78,-0.00814417,0.00049791,0.73270250,0.00108159,-0.13645024,0.00010294
 ,0.00886874,0.03993283,-0.00014062,-0.02128033,-0.02341134,0.00027586,
 0.02831028,-0.04142701,0.00014499,-0.06480955,-0.26666054,0.00299499,0
 .01687979,0.64440426,0.00110163,0.00130214,-0.05904541,0.00040457,-0.0
 0137135,0.00704505,0.00087014,0.00053596,-0.00300489,-0.00071836,0.000
 53364,0.00704171,0.00196676,0.00144898,-0.07318878,-0.00128541,-0.0050
 2550,0.16942111,-0.10100924,-0.10372253,0.00079199,0.01383516,0.016293
 21,-0.00013495,-0.00272399,0.00373817,0.00004441,-0.00097488,0.0004716
 6,-0.00000524,-0.00488256,0.00045944,0.00004972,-0.00614862,-0.0266676
 4,0.00020150,0.10357222,-0.10379894,-0.30961550,0.00174619,-0.00997910
 ,-0.01802101,0.00016075,0.00346671,-0.00218338,-0.00000211,0.00058844,
 0.00056399,-0.00001098,0.00069620,0.00092845,0.00000335,-0.00156291,0.
 00264097,-0.00002066,0.11175622,0.32783980,0.00057513,0.00170739,-0.04
 312681,0.00004127,-0.00010903,0.00672339,0.00006821,0.00004402,0.00519
 792,-0.00005340,0.00001368,-0.00107015,0.00008442,-0.00005901,0.007100
 12,0.00023164,0.00026011,0.00612380,-0.00089944,-0.00181050,0.02864636
 ,-0.00063019,-0.00330606,0.00004192,0.01246668,-0.00738810,-0.00003166
 ,-0.17041374,0.14254990,0.00059774,-0.01271452,0.02336960,0.00004252,-
 0.00440332,-0.00139356,0.00008902,-0.00069240,-0.00087330,-0.00000245,
 0.00067946,-0.00054982,0.00000342,0.17833337,-0.00325627,-0.00445423,0
 .00005006,0.01963546,-0.01730462,-0.00009027,0.14083472,-0.23979516,-0
 .00055847,-0.00502942,0.00957151,0.00001482,-0.00234571,0.00070263,0.0
 0001423,-0.00094185,0.00031611,0.00001589,0.00102461,-0.00068256,-0.00
 000128,-0.15337910,0.24885670,0.00001853,0.00004661,0.00514028,-0.0001
 2960,0.00004122,0.00597142,0.00058523,-0.00055531,-0.04334270,0.000254
 12,-0.00018692,0.00563792,0.00009632,0.00008561,0.00884438,-0.00000643
 ,-0.00004890,-0.00089023,0.00000205,0.00000065,0.00027884,-0.00073525,
 0.00059448,0.02841415,-0.00127312,0.00059699,0.00000353,-0.00485741,0.
 00068029,0.00010439,-0.00851098,-0.03124909,0.00015444,-0.09759019,-0.
 09571916,0.00087172,0.00909001,0.01914285,-0.00008620,-0.00200235,0.00
 293589,0.00000305,0.00001836,-0.00004020,0.00000053,0.00124232,0.00032
 748,-0.00005072,0.10199921,0.00112969,0.00015664,-0.00001269,-0.000252
 00,0.00221640,-0.00000375,-0.00047897,0.00022218,-0.00000326,-0.095040
 50,-0.30285896,0.00130976,-0.01267840,-0.01935989,0.00016273,0.0036742
 6,-0.00218815,0.00001703,-0.00002547,-0.00003062,-0.00000017,-0.000181
 13,0.00073728,-0.00000019,0.10375279,0.31974799,0.00008173,-0.00004582
 ,-0.00091357,0.00011104,0.00006678,0.00758043,0.00007907,0.00032010,0.
 00296370,0.00086513,0.00113552,-0.03487608,-0.00022006,0.00000117,0.00
 433671,0.00002716,-0.00004212,0.00497545,-0.00000077,-0.00000139,-0.00
 035500,-0.00006136,-0.00001962,-0.00506340,-0.00100532,-0.00138499,0.0
 2389405,-0.04804491,0.01346951,0.00031147,-0.13389249,-0.00445165,0.00
 038442,-0.03296308,-0.02796062,0.00028459,0.01475750,-0.00520975,-0.00
 029871,-0.01703068,-0.00289327,-0.00052524,0.01260469,0.01039011,-0.00
 016344,0.00128269,-0.00185035,-0.00005057,0.00071911,0.00354923,-0.000
 00478,0.00059790,0.00040003,-0.00000647,0.69432630,0.01636267,0.019949
 67,-0.00015572,-0.00278228,-0.11619836,0.00008334,-0.03207762,0.008035
 70,0.00019028,-0.00279971,-0.00853069,0.00006601,-0.00145067,-0.005798
 47,-0.00004212,0.00892766,-0.00517235,-0.00010015,0.00158973,-0.003392
 25,-0.00002788,-0.00016815,-0.00295963,0.00000393,-0.00171297,0.000069
 51,0.00002726,-0.04017237,0.98002982,0.00024154,-0.00018130,-0.0033158
 0,0.00032781,0.00012147,-0.08377199,0.00024075,0.00013531,-0.00346509,
 0.00004659,0.00006933,0.00739730,0.00012658,0.00000879,-0.00152237,-0.
 00003551,-0.00003708,0.00748654,-0.00004664,0.00000528,-0.00484350,-0.
 00002752,-0.00003126,-0.00407870,0.00001152,0.00000285,0.00123308,-0.0
 0299354,-0.00042070,0.25146389,-0.00202564,-0.00801298,0.00005411,-0.0
 5304723,0.04694447,0.00046603,-0.00043665,0.00399599,0.00001243,-0.002
 58678,0.00184858,0.00007252,0.00463548,0.00258093,0.00012619,-0.005008
 19,-0.00033114,0.00004514,0.00077040,-0.00022748,0.00000653,-0.0041583
 4,-0.00016341,0.00002482,-0.00019879,-0.00015824,0.00000264,-0.3041867
 6,0.20332826,0.00131485,0.32409615,-0.00030101,0.00152355,0.00000176,0
 .03144399,0.00000829,-0.00019881,-0.00923237,-0.00927362,0.00009431,0.
 00351725,0.00134189,-0.00009678,-0.00335409,-0.00001851,-0.00009055,0.
 00089354,0.00228650,0.00001708,-0.00174301,0.00101897,0.00000640,-0.00
 118972,0.00328732,0.00001546,0.00021488,-0.00000353,-0.00000170,0.2015
 1384,-0.38226276,-0.00109694,-0.26158859,0.51082998,0.00004666,0.00007
 138,0.00354281,0.00049394,-0.00030265,0.02127215,0.00002590,-0.0000068
 0,0.00109467,-0.00000219,-0.00002008,-0.00053591,-0.00004744,-0.000017
 36,0.00026070,0.00002594,-0.00000309,-0.00105390,0.00000112,0.00000204
 ,0.00054651,0.00003121,-0.00000515,-0.00013657,-0.00000032,0.00000060,
 -0.00003423,0.00132780,-0.00113684,-0.08398574,-0.00179551,0.00135672,
 0.03098586,-0.00226351,-0.00235640,0.00000726,-0.02832909,-0.05447341,
 0.00039187,-0.00422438,0.00667397,0.00002412,-0.00403701,-0.00107527,0
 .00008943,0.00422818,-0.00101046,0.00012507,-0.00131219,-0.00222086,0.
 00003175,-0.00398464,-0.00216921,0.00002549,0.00028484,-0.00017740,-0.
 00000519,-0.00088703,-0.00010884,0.00001332,-0.20276164,-0.15223654,0.
 00094298,0.04725647,0.03730759,-0.00016010,0.19975077,0.01213624,-0.00
 713629,-0.00007005,-0.04009786,-0.02383541,0.00030369,-0.00138580,0.00
 311995,0.00000295,-0.00257828,0.00147461,0.00006164,0.00443732,0.00104
 771,0.00012378,-0.00483179,-0.00016488,0.00008704,-0.00108193,0.002847
 23,0.00000924,0.00138616,0.00146966,-0.00002219,-0.00036029,-0.0000650
 7,0.00000713,-0.15020424,-0.48561325,0.00137747,0.01349134,-0.12942274
 ,0.00006462,0.17261981,0.63711163,0.00001623,0.00003523,0.00112042,0.0
 0037235,0.00041016,0.02114487,0.00006490,-0.00003426,0.00361692,0.0000
 0285,0.00000694,-0.00108466,-0.00004014,0.00000267,0.00026783,0.000004
 09,0.00000930,-0.00060569,0.00002702,0.00000623,-0.00008746,-0.0000040
 7,0.00000010,0.00042191,0.00000002,-0.00000065,-0.00057093,0.00094858,
 0.00142435,-0.08401990,-0.00013062,-0.00011996,0.02881052,-0.00130056,
 -0.00173646,0.03109122,0.00494866,0.00314994,-0.00007448,-0.01709337,-
 0.00898985,0.00021453,0.01600592,0.00872366,-0.00012756,-0.06388192,0.
 01334567,0.00007792,-0.34936799,-0.03579100,-0.00227079,-0.02498439,-0
 .03009127,-0.00064531,-0.00023575,0.00027440,-0.00001221,-0.00038939,-
 0.00007906,-0.00004393,0.00202102,-0.00106133,-0.00000313,0.01590981,0
 .00185201,-0.00012512,-0.00476502,0.00254130,0.00003755,-0.00420035,-0
 .00385357,0.00003478,0.77549194,0.00953356,-0.00967310,-0.00036455,-0.
 00409138,0.00662711,0.00001811,-0.00205433,-0.01019113,0.00049202,0.04
 117326,0.01202401,0.00048124,-0.03826125,-0.14364960,-0.00231613,-0.05
 231427,-0.00802013,-0.00032712,-0.00138272,0.00017565,0.00003360,0.001
 13395,0.00039383,-0.00006053,0.00085486,0.00203919,-0.00033314,0.00257
 977,0.00035886,-0.00003477,-0.00105758,0.00087841,0.00000564,-0.000456
 61,-0.00006776,0.00000845,-0.02497891,0.86526999,0.00078490,0.00077170
 ,0.00392483,-0.00240857,-0.00115595,-0.00072129,0.00238456,0.00049587,
 0.00460881,-0.00190478,0.00265091,0.01104663,0.01905847,0.00062845,-0.
 04261485,-0.00041622,-0.00320198,0.00924202,0.00005630,0.00001573,-0.0
 0006429,0.00011609,0.00003650,-0.00032623,-0.00019064,0.00014092,-0.00
 289058,0.00215571,0.00023740,-0.00042573,-0.00061114,0.00038981,-0.000
 00390,-0.00051794,-0.00051900,0.00001143,-0.08751708,0.00352675,0.0402
 1949,0.00045047,-0.00172726,-0.00008642,0.00014729,0.00044618,0.000029
 47,-0.00031620,0.00004522,-0.00017625,0.00191910,-0.00207675,-0.000462
 38,-0.00971714,-0.03668260,0.00445556,-0.00533588,0.00175581,0.0002430
 5,-0.00036395,0.00005153,-0.00001460,-0.00000913,0.00001315,0.00003368
 ,-0.00036017,0.00159960,0.00013675,-0.00021200,-0.00002906,0.00001113,
 0.00005834,0.00006058,-0.00000061,0.00012637,0.00018745,-0.00000133,-0
 .11220121,-0.11570535,0.02181909,0.11269895,-0.00047945,-0.00030623,0.
 00001083,0.00155523,0.00078216,-0.00000744,-0.00140786,-0.00106142,-0.
 00035310,0.00432034,0.00160332,-0.00047113,-0.00581214,-0.00134230,0.0
 0066833,0.00144942,0.00305473,0.00033272,-0.00001375,0.00003309,-0.000
 00741,0.00007373,0.00000788,0.00002325,-0.00030145,-0.00025650,0.00030
 821,-0.00148200,-0.00016337,0.00010840,0.00045342,-0.00030260,-0.00001
 570,0.00034898,0.00031855,-0.00002443,-0.11750871,-0.41977558,0.042822
 22,0.12997850,0.43231171,-0.00055508,-0.00012617,0.00165082,0.00071720
 ,0.00004663,0.00010669,-0.00037106,-0.00018858,-0.00091244,0.00078032,
 -0.00046505,-0.00223193,-0.00541473,-0.00287866,-0.00387948,0.00017542
 ,0.00094178,0.00345317,-0.00002756,-0.00000502,-0.00025247,0.00000690,
 0.00000280,0.00016833,0.00016878,-0.00014292,0.00065378,-0.00063814,-0
 .00009908,0.00007949,0.00019352,-0.00011117,-0.00004813,0.00014512,0.0
 0015471,-0.00003474,0.02960558,0.05693059,-0.00691670,-0.02149682,-0.0
 4762646,0.01151072,-0.00082276,0.00031560,-0.00025295,0.00095804,-0.00
 005747,0.00000195,-0.00070049,0.00145300,-0.00006919,-0.00320470,-0.00
 401869,0.00043716,-0.01971590,0.02729299,0.00536919,0.00228652,0.00115
 312,-0.00055997,0.00004295,-0.00002777,0.00002875,-0.00031481,-0.00014
 072,-0.00000691,0.00009915,0.00018912,0.00000812,-0.00085667,-0.000054
 13,0.00001447,0.00030074,-0.00023668,-0.00000040,0.00022241,0.00014356
 ,0.00000037,-0.23589081,0.18683561,0.04764679,0.01325236,-0.01140573,-
 0.00335397,0.24575682,0.00028001,-0.00009300,0.00008882,-0.00162974,-0
 .00115256,0.00002348,0.00150368,0.00152756,-0.00012126,-0.00458285,0.0
 0081977,-0.00044109,0.00012357,0.01320782,0.00200041,-0.00097182,-0.00
 138745,0.00005206,-0.00014731,0.00005458,-0.00001344,-0.00011955,-0.00
 002080,0.00004492,-0.00007964,0.00028542,-0.00002092,0.00169522,0.0002
 9575,-0.00003976,-0.00043125,0.00018700,0.00000628,-0.00045837,-0.0005
 3532,0.00001110,0.18740358,-0.29328060,-0.04724927,0.02106215,-0.01434
 746,-0.00596936,-0.20051024,0.29781676,-0.00006037,-0.00023783,-0.0005
 2332,0.00080283,0.00058645,0.00009616,-0.00105750,-0.00021894,0.001991
 96,0.00042210,-0.00083978,0.00369678,-0.00693097,0.00211790,-0.0052239
 0,0.00049989,0.00093205,-0.00157405,0.00000125,-0.00000501,0.00008558,
 -0.00006721,-0.00001245,-0.00041323,0.00001995,-0.00008945,-0.00073456
 ,-0.00074923,-0.00006389,-0.00014503,0.00020464,-0.00013776,0.00000735
 ,0.00018199,0.00017026,-0.00000384,0.06114852,-0.05760603,-0.01241930,
 -0.00470644,0.00436222,-0.00234637,-0.05015950,0.05134811,0.01621955,-
 0.02646066,0.02860981,-0.00035278,-0.00459464,-0.00892220,0.00012023,0
 .00479946,0.00094504,-0.00003244,-0.00586686,-0.00166257,0.00027010,0.
 04069984,0.00041518,0.00088251,-0.13091647,0.04200399,-0.00113419,-0.0
 0165595,0.00011625,-0.00000779,-0.00024836,0.00002574,-0.00002355,0.00
 070924,-0.00153136,-0.00003563,-0.00253321,0.00146775,0.00003764,0.001
 45201,-0.00069327,-0.00001770,0.00129330,-0.00040533,-0.00001470,-0.01
 680191,-0.00032073,-0.00246105,-0.00179229,0.00136129,0.00066297,-0.00
 254128,-0.00960740,0.00127504,0.53930544,0.02047004,0.00737837,-0.0004
 8246,-0.00928652,0.00848991,0.00010952,-0.00639815,-0.00311535,0.00006
 946,0.00098364,-0.00526056,-0.00003417,0.00797039,-0.02607628,0.000135
 06,0.04823374,-0.16987578,0.00178437,-0.00369466,0.00007520,0.00001473
 ,0.00009436,-0.00032847,0.00001025,0.00057248,-0.00007084,-0.00002975,
 0.00697187,0.00572931,-0.00000564,-0.00332724,-0.00042677,0.00001099,-
 0.00275404,-0.00368879,0.00001284,0.00867823,0.00199474,0.00066356,-0.
 00026607,-0.00035901,-0.00026598,-0.00381511,-0.00109476,0.00034790,-0
 .02278149,0.60231218,0.00012553,-0.00011880,0.00193346,0.00029635,-0.0
 0026617,0.00707326,0.00012213,0.00006455,-0.00062504,0.00014350,0.0000
 3336,0.00484830,-0.00045796,-0.00039891,0.00166434,-0.00048463,0.00094
 553,-0.06956498,-0.00009870,-0.00000560,-0.00370231,0.00000507,-0.0000
 0163,-0.00052195,-0.00000927,0.00000529,0.00015277,-0.00016106,-0.0000
 5406,0.00162657,0.00008680,-0.00003082,-0.00065446,0.00006403,0.000045
 94,-0.00030295,-0.00033441,-0.00036487,-0.00680725,0.00027179,-0.00003
 121,-0.00048215,0.00137994,0.00240703,0.00806134,0.00618963,0.00064646
 ,0.46243772,0.00384320,0.00171682,-0.00180144,-0.00060859,0.00350026,0
 .00177749,-0.00291017,-0.00128644,-0.00020286,0.00252713,-0.00124432,0
 .00104776,-0.01089603,-0.00244516,-0.00073047,-0.02170560,0.01312677,-
 0.03118974,0.00048663,-0.00019797,-0.00107384,0.00007489,-0.00003088,-
 0.00011605,-0.00003341,0.00029484,-0.00008850,0.00127167,0.00057133,0.
 00044210,-0.00096503,0.00019620,-0.00015513,-0.00055188,-0.00020583,0.
 00001942,0.00647206,-0.00039389,0.00211832,0.00055797,-0.00044229,-0.0
 0017298,0.00011105,0.00183900,-0.00263709,-0.13690538,0.01789793,-0.08
 243898,0.16896157,-0.00262767,-0.00282872,0.00193006,0.00192347,-0.001
 64198,-0.00128918,0.00143593,0.00067150,0.00011450,-0.00061271,0.00102
 198,-0.00035011,0.00036575,0.00065957,-0.00042606,0.02440949,0.0034536
 8,0.02175629,0.00030745,-0.00009947,0.00057696,-0.00002873,0.00005090,
 0.00001436,-0.00007109,-0.00001376,0.00006752,-0.00166616,-0.00117828,
 -0.00042012,0.00083809,0.00001152,0.00014410,0.00064776,0.00073396,0.0
 0001586,-0.00156369,-0.00192059,0.00133721,0.00041156,0.00000617,0.000
 42512,0.00058290,-0.00094806,-0.00077068,0.01803211,-0.08170266,0.0202
 5001,-0.00073519,0.07687383,0.00090201,0.00280621,-0.00126940,-0.00087
 364,0.00127381,0.00067611,-0.00127344,-0.00059772,-0.00015490,0.001012
 15,-0.00034233,0.00045416,-0.00444821,-0.00146147,0.00000904,-0.018989
 85,0.00403040,-0.00919608,0.00047650,-0.00012209,-0.00056167,0.0000385
 6,0.00001154,-0.00005221,-0.00000922,0.00016201,-0.00011548,0.00083971
 ,0.00037632,0.00017424,-0.00069092,0.00020094,-0.00004441,-0.00038312,
 -0.00009619,0.00008893,0.00371406,0.00075557,0.00191807,-0.00003468,-0
 .00011597,-0.00025458,-0.00038006,0.00040028,-0.00280898,-0.08369887,0
 .02179486,-0.17646349,0.13880258,-0.00578211,0.28952645,0.00353919,0.0
 0281441,0.00210802,-0.00073640,0.00349371,-0.00182852,-0.00315189,-0.0
 0147714,0.00028537,0.00293325,-0.00139553,-0.00113585,-0.01156049,-0.0
 0279370,-0.00005963,-0.02653553,0.01046788,0.03065312,0.00067052,-0.00
 024728,0.00103621,0.00008754,-0.00001879,0.00011195,-0.00002196,0.0003
 1757,0.00009581,0.00118614,0.00057889,-0.00053778,-0.00102641,0.000237
 38,0.00018929,-0.00053755,-0.00013081,-0.00000307,0.00670599,-0.000927
 84,-0.00035694,0.00080334,-0.00055327,-0.00033899,0.00076112,0.0031947
 1,0.00180332,-0.14771174,0.01600579,0.07937329,0.02116509,-0.00111490,
 -0.00240752,0.19077095,-0.00206193,-0.00321988,-0.00171364,0.00208809,
 -0.00108024,0.00110263,0.00103738,0.00048388,-0.00012536,-0.00015200,0
 .00081386,0.00020531,-0.00148874,0.00045551,0.00052299,0.02485322,0.00
 555536,-0.01890271,0.00032212,-0.00009796,-0.00049109,-0.00002056,0.00
 004471,0.00000977,-0.00008070,0.00003751,-0.00005586,-0.00167335,-0.00
 115734,0.00042238,0.00082304,-0.00000553,-0.00014631,0.00064729,0.0007
 3927,-0.00002829,-0.00191672,-0.00341123,-0.00156123,0.00074534,-0.000
 24511,-0.00066230,0.00180700,-0.00201581,0.00014367,0.01646265,-0.0800
 4726,-0.01496864,-0.00181268,0.01369156,0.00423321,0.00586614,0.079475
 64,-0.00028786,-0.00315055,-0.00107596,0.00068183,-0.00072678,0.000462
 94,0.00102027,0.00046372,-0.00015590,-0.00090492,0.00025091,0.00039065
 ,0.00407240,0.00172932,0.00027836,0.01813037,-0.00152592,-0.00609513,-
 0.00049196,0.00010490,-0.00037832,-0.00004227,-0.00002086,-0.00003641,
 -0.00000263,-0.00014857,-0.00009880,-0.00060235,-0.00025726,0.00014375
 ,0.00060320,-0.00020775,-0.00003762,0.00030030,-0.00000419,0.00007245,
 -0.00385189,-0.00091243,0.00152369,0.00001265,0.00002187,-0.00014963,-
 0.00001891,-0.00225719,-0.00307476,0.08152517,-0.01649949,-0.15520877,
 0.01345811,0.00100363,-0.08875517,-0.14147619,-0.00228994,0.25579942,-
 0.00567878,0.00204511,0.00018948,0.00243435,0.00045567,0.00001584,-0.0
 0040326,0.00043691,-0.00001186,0.00066479,0.00049221,-0.00002962,-0.00
 444711,-0.00007531,-0.00004140,0.00963973,0.00930012,0.00017816,0.0006
 2120,0.00370129,0.00001023,0.00008599,0.00015222,-0.00000427,-0.000041
 78,0.00015833,0.00000047,-0.00017435,-0.00119480,0.00000816,-0.0001647
 4,0.00041221,-0.00000002,-0.00007308,0.00073384,0.00000387,0.00225669,
 -0.00016613,0.00024415,0.00029378,-0.00013426,-0.00008647,0.00025624,0
 .00143628,0.00000878,-0.11023055,-0.07555521,-0.00407305,-0.03089517,-
 0.04053438,-0.03259604,-0.03734117,-0.04544559,0.02787468,0.17319721,-
 0.00555687,-0.00045293,0.00016481,0.00199370,-0.00101289,0.00005192,0.
 00019189,-0.00010709,-0.00001221,-0.00165764,-0.00199739,0.00018555,0.
 00921741,-0.00307433,-0.00043969,-0.02256035,-0.04688656,-0.00213570,0
 .00251642,-0.00205517,-0.00014633,-0.00000993,0.00010693,-0.00001647,0
 .00053608,-0.00066481,0.00000161,-0.00300581,-0.00204187,0.00001632,0.
 00099380,0.00034263,-0.00000839,0.00125200,0.00166693,0.00000082,-0.00
 013467,0.00022792,-0.00002959,0.00013005,0.00004197,0.00003913,0.00049
 362,0.00068115,-0.00002674,-0.06351546,-0.25393318,-0.00815746,-0.0303
 4851,-0.00684117,-0.02752728,-0.03431722,-0.01001695,0.02442660,0.1437
 8149,0.32601683,-0.00015211,-0.00000725,-0.00007243,0.00006364,0.00000
 332,0.00003940,-0.00000898,0.00001375,0.00004512,-0.00008647,-0.000066
 56,-0.00057432,0.00005230,-0.00008385,0.00175104,-0.00052590,-0.000612
 72,0.00943031,0.00005338,-0.00006177,-0.00026053,-0.00000066,0.0000005
 7,-0.00001559,0.00001639,-0.00001456,-0.00013731,-0.00005877,-0.000051
 20,-0.00003101,0.00001476,0.00000978,0.00001430,0.00002421,0.00003962,
 0.00006366,0.00017299,0.00006760,0.00069513,-0.00003365,-0.00000520,-0
 .00011438,-0.00008487,-0.00027019,-0.00089137,-0.00318459,-0.00828249,
 -0.07346440,-0.03705869,-0.03859736,-0.01317062,0.03248809,0.03430543,
 -0.00360478,0.00830892,0.01361311,0.08029779||0.00000006,0.00000024,0.
 00000002,-0.00000017,0.00000017,0.00000002,0.00000017,0.,0.00000007,0.
 00000049,0.,-0.00000010,0.00000004,0.00000012,0.00000007,-0.00000025,-
 0.00000050,-0.00000005,-0.00000015,0.00000010,0.00000014,0.00000025,0.
 00000019,-0.00000001,0.00000019,-0.00000003,-0.00000005,0.00000027,0.0
 0000085,0.00000006,0.00000013,0.00000006,0.00000006,-0.00000034,0.0000
 0008,0.00000023,0.00000007,-0.00000037,-0.00000014,0.00000009,-0.00000
 023,-0.00000010,-0.00000003,-0.00000025,-0.00000014,0.,0.00000017,0.00
 000032,-0.00000026,-0.00000017,-0.00000027,-0.00000019,-0.00000020,-0.
 00000012,-0.00000038,-0.00000023,-0.00000001|||@


 TOWERING GENIUS DISDAINS A BEATEN PATH.  IT SEEKS 
 REGIONS HITHERTO UNEXPLORED.

                                -- ABRAHAM LINCOLN
 Job cpu time:       0 days 15 hours  4 minutes  7.0 seconds.
 File lengths (MBytes):  RWF=    804 Int=      0 D2E=      0 Chk=     20 Scr=      1
 Normal termination of Gaussian 09 at Thu Feb 09 22:00:42 2023.
