 Entering Gaussian System, Link 0=g09
 Initial command:
 /apps/software//g09/l1.exe /scratch/matheusmaximo/38072.cluster.abaxnet/Gau-18817.inp -scrdir=/scratch/matheusmaximo/38072.cluster.abaxnet/
 Entering Link 1 = /apps/software//g09/l1.exe PID=     18818.
  
 Copyright (c) 1988,1990,1992,1993,1995,1998,2003,2009, Gaussian, Inc.
                  All Rights Reserved.
  
 This is part of the Gaussian(R) 09 program.  It is based on
 the Gaussian(R) 03 system (copyright 2003, Gaussian, Inc.),
 the Gaussian(R) 98 system (copyright 1998, Gaussian, Inc.),
 the Gaussian(R) 94 system (copyright 1995, Gaussian, Inc.),
 the Gaussian 92(TM) system (copyright 1992, Gaussian, Inc.),
 the Gaussian 90(TM) system (copyright 1990, Gaussian, Inc.),
 the Gaussian 88(TM) system (copyright 1988, Gaussian, Inc.),
 the Gaussian 86(TM) system (copyright 1986, Carnegie Mellon
 University), and the Gaussian 82(TM) system (copyright 1983,
 Carnegie Mellon University). Gaussian is a federally registered
 trademark of Gaussian, Inc.
  
 This software contains proprietary and confidential information,
 including trade secrets, belonging to Gaussian, Inc.
  
 This software is provided under written license and may be
 used, copied, transmitted, or stored only in accord with that
 written license.
  
 The following legend is applicable only to US Government
 contracts under FAR:
  
                    RESTRICTED RIGHTS LEGEND
  
 Use, reproduction and disclosure by the US Government is
 subject to restrictions as set forth in subparagraphs (a)
 and (c) of the Commercial Computer Software - Restricted
 Rights clause in FAR 52.227-19.
  
 Gaussian, Inc.
 340 Quinnipiac St., Bldg. 40, Wallingford CT 06492
  
  
 ---------------------------------------------------------------
 Warning -- This program may not be used in any manner that
 competes with the business of Gaussian, Inc. or will provide
 assistance to any competitor of Gaussian, Inc.  The licensee
 of this program is prohibited from giving any competitor of
 Gaussian, Inc. access to this program.  By using this program,
 the user acknowledges that Gaussian, Inc. is engaged in the
 business of creating and licensing software in the field of
 computational chemistry and represents and warrants to the
 licensee that it is not a competitor of Gaussian, Inc. and that
 it will not use this program in any manner prohibited above.
 ---------------------------------------------------------------
  

 Cite this work as:
 Gaussian 09, Revision A.02,
 M. J. Frisch, G. W. Trucks, H. B. Schlegel, G. E. Scuseria, 
 M. A. Robb, J. R. Cheeseman, G. Scalmani, V. Barone, B. Mennucci, 
 G. A. Petersson, H. Nakatsuji, M. Caricato, X. Li, H. P. Hratchian, 
 A. F. Izmaylov, J. Bloino, G. Zheng, J. L. Sonnenberg, M. Hada, 
 M. Ehara, K. Toyota, R. Fukuda, J. Hasegawa, M. Ishida, T. Nakajima, 
 Y. Honda, O. Kitao, H. Nakai, T. Vreven, J. A. Montgomery, Jr., 
 J. E. Peralta, F. Ogliaro, M. Bearpark, J. J. Heyd, E. Brothers, 
 K. N. Kudin, V. N. Staroverov, R. Kobayashi, J. Normand, 
 K. Raghavachari, A. Rendell, J. C. Burant, S. S. Iyengar, J. Tomasi, 
 M. Cossi, N. Rega, J. M. Millam, M. Klene, J. E. Knox, J. B. Cross, 
 V. Bakken, C. Adamo, J. Jaramillo, R. Gomperts, R. E. Stratmann, 
 O. Yazyev, A. J. Austin, R. Cammi, C. Pomelli, J. W. Ochterski, 
 R. L. Martin, K. Morokuma, V. G. Zakrzewski, G. A. Voth, 
 P. Salvador, J. J. Dannenberg, S. Dapprich, A. D. Daniels, 
 O. Farkas, J. B. Foresman, J. V. Ortiz, J. Cioslowski, 
 and D. J. Fox, Gaussian, Inc., Wallingford CT, 2009.
 
 ******************************************
 Gaussian 09:  EM64L-G09RevA.02 11-Jun-2009
                25-Nov-2022 
 ******************************************
 %chk=/home/matheusmaximo/Gaussian/OH/1.chk
 ---------------------------------------------------------------------
 # opt=tight freq cam-b3lyp/gen geom=connectivity scf=qc int=ultrafine
 ---------------------------------------------------------------------
 1/7=10,14=-1,18=20,19=15,26=3,38=1,57=2/1,3;
 2/9=110,12=2,17=6,18=5,40=1/2;
 3/5=7,11=2,16=1,25=1,30=1,71=1,74=-40,75=-5/1,2,3;
 4//1;
 5/5=2,8=3,38=5/8;
 6/7=2,8=2,9=2,10=2,28=1/1;
 7//1,2,3,16;
 1/7=10,14=-1,18=20,19=15/3(2);
 2/9=110/2;
 99//99;
 2/9=110/2;
 3/5=7,6=1,11=2,16=1,25=1,30=1,71=1,74=-40,75=-5,82=7/1,2,3;
 4/5=5,16=3/1;
 5/5=2,8=3,38=5/8;
 7//1,2,3,16;
 1/7=10,14=-1,18=20,19=15/3(-5);
 2/9=110/2;
 6/7=2,8=2,9=2,10=2,19=2,28=1/1;
 99/9=1/99;
 --------------------------
 NA+OH CAM-B3LYP def2-TZVPD
 --------------------------
 Symbolic Z-matrix:
 Charge =  0 Multiplicity = 1
 C                    -0.27254  -0.24109   0. 
 C                    -0.47006   0.41584  -1.20829 
 C                    -0.50817  -0.2645   -2.41432 
 C                    -0.34624  -1.64235  -2.40153 
 C                    -0.14736  -2.34282  -1.2115 
 C                    -0.11161  -1.61449  -0.01067 
 H                    -0.24317   0.32521   0.92343 
 H                    -0.66227   0.27859  -3.3362 
 H                    -0.37968  -2.19476  -3.33472 
 N                    -0.63739   1.86299  -1.19377 
 O                    -0.80562   2.43116  -2.27094 
 O                    -0.60004   2.4319   -0.10292 
 N                    -0.04317  -3.71679  -1.16509 
 H                     0.26745  -4.16973  -2.01151 
 H                     0.36263  -4.09426  -0.32048 
 O                    -0.60442  -2.26596   1.08294 
 H                    -0.52855  -1.69196   1.85821 
 

 GradGradGradGradGradGradGradGradGradGradGradGradGradGradGradGradGradGrad
 Berny optimization.
 Initialization pass.
                           ----------------------------
                           !    Initial Parameters    !
                           ! (Angstroms and Degrees)  !
 --------------------------                            --------------------------
 ! Name  Definition              Value          Derivative Info.                !
 --------------------------------------------------------------------------------
 ! R1    R(1,2)                  1.3894         estimate D2E/DX2                !
 ! R2    R(1,6)                  1.3828         estimate D2E/DX2                !
 ! R3    R(1,7)                  1.0836         estimate D2E/DX2                !
 ! R4    R(2,3)                  1.3852         estimate D2E/DX2                !
 ! R5    R(2,10)                 1.4569         estimate D2E/DX2                !
 ! R6    R(3,4)                  1.3874         estimate D2E/DX2                !
 ! R7    R(3,8)                  1.081          estimate D2E/DX2                !
 ! R8    R(4,5)                  1.3951         estimate D2E/DX2                !
 ! R9    R(4,9)                  1.085          estimate D2E/DX2                !
 ! R10   R(5,6)                  1.4049         estimate D2E/DX2                !
 ! R11   R(5,13)                 1.3787         estimate D2E/DX2                !
 ! R12   R(6,16)                 1.365          estimate D2E/DX2                !
 ! R13   R(10,11)                1.2294         estimate D2E/DX2                !
 ! R14   R(10,12)                1.2309         estimate D2E/DX2                !
 ! R15   R(13,14)                1.009          estimate D2E/DX2                !
 ! R16   R(13,15)                1.0102         estimate D2E/DX2                !
 ! R17   R(16,17)                0.9676         estimate D2E/DX2                !
 ! A1    A(2,1,6)              118.6469         estimate D2E/DX2                !
 ! A2    A(2,1,7)              119.8563         estimate D2E/DX2                !
 ! A3    A(6,1,7)              121.4963         estimate D2E/DX2                !
 ! A4    A(1,2,3)              121.9265         estimate D2E/DX2                !
 ! A5    A(1,2,10)             118.5099         estimate D2E/DX2                !
 ! A6    A(3,2,10)             119.5634         estimate D2E/DX2                !
 ! A7    A(2,3,4)              118.4589         estimate D2E/DX2                !
 ! A8    A(2,3,8)              119.9777         estimate D2E/DX2                !
 ! A9    A(4,3,8)              121.5634         estimate D2E/DX2                !
 ! A10   A(3,4,5)              121.5425         estimate D2E/DX2                !
 ! A11   A(3,4,9)              119.6123         estimate D2E/DX2                !
 ! A12   A(5,4,9)              118.8442         estimate D2E/DX2                !
 ! A13   A(4,5,6)              118.1919         estimate D2E/DX2                !
 ! A14   A(4,5,13)             122.6733         estimate D2E/DX2                !
 ! A15   A(6,5,13)             119.0747         estimate D2E/DX2                !
 ! A16   A(1,6,5)              121.2329         estimate D2E/DX2                !
 ! A17   A(1,6,16)             115.2018         estimate D2E/DX2                !
 ! A18   A(5,6,16)             115.3527         estimate D2E/DX2                !
 ! A19   A(2,10,11)            117.7786         estimate D2E/DX2                !
 ! A20   A(2,10,12)            117.6761         estimate D2E/DX2                !
 ! A21   A(11,10,12)           124.5453         estimate D2E/DX2                !
 ! A22   A(5,13,14)            116.2565         estimate D2E/DX2                !
 ! A23   A(5,13,15)            115.5231         estimate D2E/DX2                !
 ! A24   A(14,13,15)           114.2026         estimate D2E/DX2                !
 ! A25   A(6,16,17)            109.2985         estimate D2E/DX2                !
 ! D1    D(6,1,2,3)             -0.0702         estimate D2E/DX2                !
 ! D2    D(6,1,2,10)          -179.9152         estimate D2E/DX2                !
 ! D3    D(7,1,2,3)            179.6631         estimate D2E/DX2                !
 ! D4    D(7,1,2,10)            -0.182          estimate D2E/DX2                !
 ! D5    D(2,1,6,5)             -0.1112         estimate D2E/DX2                !
 ! D6    D(2,1,6,16)          -147.1274         estimate D2E/DX2                !
 ! D7    D(7,1,6,5)           -179.8399         estimate D2E/DX2                !
 ! D8    D(7,1,6,16)            33.1439         estimate D2E/DX2                !
 ! D9    D(1,2,3,4)              0.1555         estimate D2E/DX2                !
 ! D10   D(1,2,3,8)           -179.9041         estimate D2E/DX2                !
 ! D11   D(10,2,3,4)           179.999          estimate D2E/DX2                !
 ! D12   D(10,2,3,8)            -0.0607         estimate D2E/DX2                !
 ! D13   D(1,2,10,11)          179.6971         estimate D2E/DX2                !
 ! D14   D(1,2,10,12)           -0.283          estimate D2E/DX2                !
 ! D15   D(3,2,10,11)           -0.1517         estimate D2E/DX2                !
 ! D16   D(3,2,10,12)          179.8681         estimate D2E/DX2                !
 ! D17   D(2,3,4,5)             -0.0619         estimate D2E/DX2                !
 ! D18   D(2,3,4,9)            179.5807         estimate D2E/DX2                !
 ! D19   D(8,3,4,5)            179.9988         estimate D2E/DX2                !
 ! D20   D(8,3,4,9)             -0.3586         estimate D2E/DX2                !
 ! D21   D(3,4,5,6)             -0.1106         estimate D2E/DX2                !
 ! D22   D(3,4,5,13)           177.0412         estimate D2E/DX2                !
 ! D23   D(9,4,5,6)           -179.7559         estimate D2E/DX2                !
 ! D24   D(9,4,5,13)            -2.6041         estimate D2E/DX2                !
 ! D25   D(4,5,6,1)              0.199          estimate D2E/DX2                !
 ! D26   D(4,5,6,16)           147.1689         estimate D2E/DX2                !
 ! D27   D(13,5,6,1)          -177.0579         estimate D2E/DX2                !
 ! D28   D(13,5,6,16)          -30.088          estimate D2E/DX2                !
 ! D29   D(4,5,13,14)           24.8338         estimate D2E/DX2                !
 ! D30   D(4,5,13,15)          162.7439         estimate D2E/DX2                !
 ! D31   D(6,5,13,14)         -158.0385         estimate D2E/DX2                !
 ! D32   D(6,5,13,15)          -20.1284         estimate D2E/DX2                !
 ! D33   D(1,6,16,17)          -31.6519         estimate D2E/DX2                !
 ! D34   D(5,6,16,17)          179.353          estimate D2E/DX2                !
 --------------------------------------------------------------------------------
 Trust Radius=3.00D-01 FncErr=1.00D-07 GrdErr=1.00D-06
 Number of steps in this run=  86 maximum allowed number of steps= 102.
 GradGradGradGradGradGradGradGradGradGradGradGradGradGradGradGradGradGrad

                          Input orientation:                          
 ---------------------------------------------------------------------
 Center     Atomic      Atomic             Coordinates (Angstroms)
 Number     Number       Type             X           Y           Z
 ---------------------------------------------------------------------
      1          6           0       -0.272537   -0.241090    0.000000
      2          6           0       -0.470057    0.415840   -1.208290
      3          6           0       -0.508167   -0.264500   -2.414320
      4          6           0       -0.346237   -1.642350   -2.401530
      5          6           0       -0.147357   -2.342820   -1.211500
      6          6           0       -0.111607   -1.614490   -0.010670
      7          1           0       -0.243167    0.325210    0.923430
      8          1           0       -0.662267    0.278590   -3.336200
      9          1           0       -0.379677   -2.194760   -3.334720
     10          7           0       -0.637387    1.862990   -1.193770
     11          8           0       -0.805617    2.431160   -2.270940
     12          8           0       -0.600037    2.431900   -0.102920
     13          7           0       -0.043167   -3.716790   -1.165090
     14          1           0        0.267453   -4.169730   -2.011510
     15          1           0        0.362633   -4.094260   -0.320480
     16          8           0       -0.604418   -2.265962    1.082944
     17          1           0       -0.528548   -1.691963    1.858213
 ---------------------------------------------------------------------
                    Distance matrix (angstroms):
                    1          2          3          4          5
     1  C    0.000000
     2  C    1.389437   0.000000
     3  C    2.425904   1.385216   0.000000
     4  C    2.781422   2.382289   1.387392   0.000000
     5  C    2.429130   2.777472   2.428245   1.395128   0.000000
     6  C    1.382838   2.384328   2.785187   2.402507   1.404897
     7  H    1.083643   2.145675   3.399788   3.864877   3.418405
     8  H    3.398851   2.140977   1.080998   2.159512   3.413396
     9  H    3.866350   3.368250   2.142323   1.084951   2.141018
    10  N    2.446499   1.456864   2.456146   3.718987   4.234298
    11  O    3.547149   2.302898   2.715809   4.101410   4.934228
    12  O    2.694944   2.302875   3.552687   4.684820   4.922583
    13  N    3.672946   4.154844   3.700690   2.433914   1.378696
    14  H    4.446569   4.713442   4.001833   2.629901   2.037077
    15  H    3.918299   4.671465   4.450789   3.293194   2.030160
    16  O    2.320133   3.529854   4.030629   3.549241   2.340788
    17  H    2.371398   3.721518   4.504731   4.263931   3.161022
                    6          7          8          9         10
     6  C    0.000000
     7  H    2.156916   0.000000
     8  H    3.866022   4.280452   0.000000
     9  H    3.384950   4.949821   2.489442   0.000000
    10  N    3.710665   2.646264   2.664761   4.595151   0.000000
    11  O    4.685910   3.867218   2.406010   4.765731   1.229396
    12  O    4.076806   2.370420   3.885192   5.647926   1.230856
    13  N    2.399382   4.554084   4.589125   2.671537   5.611405
    14  H    3.267461   5.392503   4.733575   2.463771   6.154766
    15  H    2.543648   4.630985   5.409880   3.639336   6.103401
    16  O    1.365016   2.621091   5.099698   4.423950   4.715162
    17  H    1.916394   2.241484   5.557237   5.219341   4.686591
                   11         12         13         14         15
    11  O    0.000000
    12  O    2.177745   0.000000
    13  N    6.292974   6.264559   0.000000
    14  H    6.692573   6.926527   1.008993   0.000000
    15  H    6.910153   6.600366   1.010210   1.695387   0.000000
    16  O    5.775116   4.845224   2.733782   3.736327   2.499493
    17  H    5.841816   4.566990   3.670951   4.663443   3.363323
                   16         17
    16  O    0.000000
    17  H    0.967611   0.000000
 Stoichiometry    C6H6N2O3
 Framework group  C1[X(C6H6N2O3)]
 Deg. of freedom    45
 Full point group                 C1      NOp   1
 Largest Abelian subgroup         C1      NOp   1
 Largest concise Abelian subgroup C1      NOp   1
                         Standard orientation:                         
 ---------------------------------------------------------------------
 Center     Atomic      Atomic             Coordinates (Angstroms)
 Number     Number       Type             X           Y           Z
 ---------------------------------------------------------------------
      1          6           0       -0.087261    0.975904   -0.171846
      2          6           0       -0.916258   -0.130088   -0.030141
      3          6           0       -0.410685   -1.414657    0.084328
      4          6           0        0.965562   -1.588237    0.058486
      5          6           0        1.835184   -0.506145   -0.080147
      6          6           0        1.281355    0.779689   -0.196941
      7          1           0       -0.519104    1.965487   -0.264140
      8          1           0       -1.084809   -2.252859    0.191711
      9          1           0        1.382005   -2.585562    0.153544
     10          7           0       -2.357711    0.079864   -0.005955
     11          8           0       -3.078760   -0.908594    0.114272
     12          8           0       -2.768905    1.235526   -0.107792
     13          7           0        3.206553   -0.644677   -0.049181
     14          1           0        3.569667   -1.550080   -0.306978
     15          1           0        3.731208    0.133622   -0.422693
     16          8           0        2.023100    1.787337    0.348706
     17          1           0        1.568270    2.630142    0.210572
 ---------------------------------------------------------------------
 Rotational constants (GHZ):      2.5283678      0.7419400      0.5786722
 General basis read from cards:  (5D, 7F)
 There are   470 symmetry adapted basis functions of A   symmetry.
 Integral buffers will be    131072 words long.
 Raffenetti 2 integral format.
 Two-electron integral symmetry is turned on.
   470 basis functions,   713 primitive gaussians,   536 cartesian basis functions
    40 alpha electrons       40 beta electrons
       nuclear repulsion energy       595.5185394820 Hartrees.
 NAtoms=   17 NActive=   17 NUniq=   17 SFac= 7.50D-01 NAtFMM=   80 NAOKFM=F Big=F
 One-electron integrals computed using PRISM.
 NBasis=   470 RedAO= T  NBF=   470
 NBsUse=   469 1.00D-06 NBFU=   469
 Harris functional with IExCor=20419 diagonalized for initial guess.
 ExpMin= 4.85D-02 ExpMax= 2.70D+04 ExpMxC= 9.22D+02 IAcc=3 IRadAn=         5 AccDes= 0.00D+00
 HarFok:  IExCor=20419 AccDes= 0.00D+00 IRadAn=         5 IDoV= 1
 ScaDFX=  1.000000  1.000000  1.000000  1.000000
 FoFCou: FMM=F IPFlag=           0 FMFlag=      100000 FMFlg1=           0
         NFxFlg=           0 DoJE=T BraDBF=F KetDBF=T FulRan=T
         Omega=  0.000000  0.000000  1.000000  0.000000  0.000000 ICntrl=     500 IOpCl=  0
         NMat0=    1 NMatS0=    1 NMatT0=    0 NMatD0=    1 NMtDS0=    0 NMtDT0=    0
         I1Cent=           4 NGrid=           0.
 Petite list used in FoFCou.
 Initial guess orbital symmetries:
       Occupied  (A) (A) (A) (A) (A) (A) (A) (A) (A) (A) (A) (A)
                 (A) (A) (A) (A) (A) (A) (A) (A) (A) (A) (A) (A)
                 (A) (A) (A) (A) (A) (A) (A) (A) (A) (A) (A) (A)
                 (A) (A) (A) (A)
       Virtual   (A) (A) (A) (A) (A) (A) (A) (A) (A) (A) (A) (A)
                 (A) (A) (A) (A) (A) (A) (A) (A) (A) (A) (A) (A)
                 (A) (A) (A) (A) (A) (A) (A) (A) (A) (A) (A) (A)
                 (A) (A) (A) (A) (A) (A) (A) (A) (A) (A) (A) (A)
                 (A) (A) (A) (A) (A) (A) (A) (A) (A) (A) (A) (A)
                 (A) (A) (A) (A) (A) (A) (A) (A) (A) (A) (A) (A)
                 (A) (A) (A) (A) (A) (A) (A) (A) (A) (A) (A) (A)
                 (A) (A) (A) (A) (A) (A) (A) (A) (A) (A) (A) (A)
                 (A) (A) (A) (A) (A) (A) (A) (A) (A) (A) (A) (A)
                 (A) (A) (A) (A) (A) (A) (A) (A) (A) (A) (A) (A)
                 (A) (A) (A) (A) (A) (A) (A) (A) (A) (A) (A) (A)
                 (A) (A) (A) (A) (A) (A) (A) (A) (A) (A) (A) (A)
                 (A) (A) (A) (A) (A) (A) (A) (A) (A) (A) (A) (A)
                 (A) (A) (A) (A) (A) (A) (A) (A) (A) (A) (A) (A)
                 (A) (A) (A) (A) (A) (A) (A) (A) (A) (A) (A) (A)
                 (A) (A) (A) (A) (A) (A) (A) (A) (A) (A) (A) (A)
                 (A) (A) (A) (A) (A) (A) (A) (A) (A) (A) (A) (A)
                 (A) (A) (A) (A) (A) (A) (A) (A) (A) (A) (A) (A)
                 (A) (A) (A) (A) (A) (A) (A) (A) (A) (A) (A) (A)
                 (A) (A) (A) (A) (A) (A) (A) (A) (A) (A) (A) (A)
                 (A) (A) (A) (A) (A) (A) (A) (A) (A) (A) (A) (A)
                 (A) (A) (A) (A) (A) (A) (A) (A) (A) (A) (A) (A)
                 (A) (A) (A) (A) (A) (A) (A) (A) (A) (A) (A) (A)
                 (A) (A) (A) (A) (A) (A) (A) (A) (A) (A) (A) (A)
                 (A) (A) (A) (A) (A) (A) (A) (A) (A) (A) (A) (A)
                 (A) (A) (A) (A) (A) (A) (A) (A) (A) (A) (A) (A)
                 (A) (A) (A) (A) (A) (A) (A) (A) (A) (A) (A) (A)
                 (A) (A) (A) (A) (A) (A) (A) (A) (A) (A) (A) (A)
                 (A) (A) (A) (A) (A) (A) (A) (A) (A) (A) (A) (A)
                 (A) (A) (A) (A) (A) (A) (A) (A) (A) (A) (A) (A)
                 (A) (A) (A) (A) (A) (A) (A) (A) (A) (A) (A) (A)
                 (A) (A) (A) (A) (A) (A) (A) (A) (A) (A) (A) (A)
                 (A) (A) (A) (A) (A) (A) (A) (A) (A) (A) (A) (A)
                 (A) (A) (A) (A) (A) (A) (A) (A) (A) (A) (A) (A)
                 (A) (A) (A) (A) (A) (A) (A) (A) (A) (A) (A) (A)
                 (A) (A) (A) (A) (A) (A) (A) (A) (A)
 The electronic state of the initial guess is 1-A.
 FoFJK:  IHMeth= 1 ICntrl=     0 DoSepK=T KAlg= 1 I1Cent= 0 FoldK=F
 Gradient too large for Newton-Raphson -- use scaled steepest descent instead.
 FoFJK:  IHMeth= 1 ICntrl=     0 DoSepK=T KAlg= 1 I1Cent= 0 FoldK=F
 FoFJK:  IHMeth= 1 ICntrl=     0 DoSepK=T KAlg= 1 I1Cent= 0 FoldK=F
 FoFJK:  IHMeth= 1 ICntrl=     0 DoSepK=T KAlg= 1 I1Cent= 0 FoldK=F
 FoFJK:  IHMeth= 1 ICntrl=     0 DoSepK=T KAlg= 1 I1Cent= 0 FoldK=F
 Gradient too large for Newton-Raphson -- use scaled steepest descent instead.
 FoFJK:  IHMeth= 1 ICntrl=     0 DoSepK=T KAlg= 1 I1Cent= 0 FoldK=F
 FoFJK:  IHMeth= 1 ICntrl=     0 DoSepK=T KAlg= 1 I1Cent= 0 FoldK=F
 FoFJK:  IHMeth= 1 ICntrl=     0 DoSepK=T KAlg= 1 I1Cent= 0 FoldK=F
 FoFJK:  IHMeth= 1 ICntrl=     0 DoSepK=T KAlg= 1 I1Cent= 0 FoldK=F
 FoFJK:  IHMeth= 1 ICntrl=     0 DoSepK=T KAlg= 1 I1Cent= 0 FoldK=F
 Gradient too large for Newton-Raphson -- use scaled steepest descent instead.
 FoFJK:  IHMeth= 1 ICntrl=     0 DoSepK=T KAlg= 1 I1Cent= 0 FoldK=F
 FoFJK:  IHMeth= 1 ICntrl=     0 DoSepK=T KAlg= 1 I1Cent= 0 FoldK=F
 FoFJK:  IHMeth= 1 ICntrl=     0 DoSepK=T KAlg= 1 I1Cent= 0 FoldK=F
 Gradient too large for Newton-Raphson -- use scaled steepest descent instead.
 FoFJK:  IHMeth= 1 ICntrl=     0 DoSepK=T KAlg= 1 I1Cent= 0 FoldK=F
 FoFJK:  IHMeth= 1 ICntrl=     0 DoSepK=T KAlg= 1 I1Cent= 0 FoldK=F
 FoFJK:  IHMeth= 1 ICntrl=     0 DoSepK=T KAlg= 1 I1Cent= 0 FoldK=F
 FoFJK:  IHMeth= 1 ICntrl=     0 DoSepK=T KAlg= 1 I1Cent= 0 FoldK=F
 Gradient too large for Newton-Raphson -- use scaled steepest descent instead.
 FoFJK:  IHMeth= 1 ICntrl=     0 DoSepK=T KAlg= 1 I1Cent= 0 FoldK=F
 FoFJK:  IHMeth= 1 ICntrl=     0 DoSepK=T KAlg= 1 I1Cent= 0 FoldK=F
 FoFJK:  IHMeth= 1 ICntrl=     0 DoSepK=T KAlg= 1 I1Cent= 0 FoldK=F
 Gradient too large for Newton-Raphson -- use scaled steepest descent instead.
 FoFJK:  IHMeth= 1 ICntrl=     0 DoSepK=T KAlg= 1 I1Cent= 0 FoldK=F
 FoFJK:  IHMeth= 1 ICntrl=     0 DoSepK=T KAlg= 1 I1Cent= 0 FoldK=F
 FoFJK:  IHMeth= 1 ICntrl=     0 DoSepK=T KAlg= 1 I1Cent= 0 FoldK=F
 FoFJK:  IHMeth= 1 ICntrl=     0 DoSepK=T KAlg= 1 I1Cent= 0 FoldK=F
 LinEq1:  Iter=  0 NonCon=     1 RMS=6.32D-05 Max=4.29D-03
 AX will form     1 AO Fock derivatives at one time.
 FoFJK:  IHMeth= 1 ICntrl=     0 DoSepK=T KAlg= 1 I1Cent= 0 FoldK=F
 LinEq1:  Iter=  1 NonCon=     1 RMS=7.86D-05 Max=5.04D-03
 FoFJK:  IHMeth= 1 ICntrl=     0 DoSepK=T KAlg= 1 I1Cent= 0 FoldK=F
 LinEq1:  Iter=  2 NonCon=     1 RMS=1.42D-05 Max=7.25D-04
 FoFJK:  IHMeth= 1 ICntrl=     0 DoSepK=T KAlg= 1 I1Cent= 0 FoldK=F
 LinEq1:  Iter=  3 NonCon=     1 RMS=1.28D-05 Max=5.47D-04
 FoFJK:  IHMeth= 1 ICntrl=     0 DoSepK=T KAlg= 1 I1Cent= 0 FoldK=F
 LinEq1:  Iter=  4 NonCon=     1 RMS=2.10D-06 Max=9.12D-05
 FoFJK:  IHMeth= 1 ICntrl=     0 DoSepK=T KAlg= 1 I1Cent= 0 FoldK=F
 LinEq1:  Iter=  5 NonCon=     1 RMS=1.20D-06 Max=5.45D-05
 FoFJK:  IHMeth= 1 ICntrl=     0 DoSepK=T KAlg= 1 I1Cent= 0 FoldK=F
 LinEq1:  Iter=  6 NonCon=     1 RMS=3.78D-07 Max=9.83D-06
 FoFJK:  IHMeth= 1 ICntrl=     0 DoSepK=T KAlg= 1 I1Cent= 0 FoldK=F
 LinEq1:  Iter=  7 NonCon=     1 RMS=1.51D-07 Max=2.65D-06
 FoFJK:  IHMeth= 1 ICntrl=     0 DoSepK=T KAlg= 1 I1Cent= 0 FoldK=F
 LinEq1:  Iter=  8 NonCon=     1 RMS=5.15D-08 Max=1.62D-06
 FoFJK:  IHMeth= 1 ICntrl=     0 DoSepK=T KAlg= 1 I1Cent= 0 FoldK=F
 LinEq1:  Iter=  9 NonCon=     1 RMS=3.33D-08 Max=1.74D-06
 FoFJK:  IHMeth= 1 ICntrl=     0 DoSepK=T KAlg= 1 I1Cent= 0 FoldK=F
 LinEq1:  Iter= 10 NonCon=     1 RMS=1.10D-08 Max=4.14D-07
 FoFJK:  IHMeth= 1 ICntrl=     0 DoSepK=T KAlg= 1 I1Cent= 0 FoldK=F
 LinEq1:  Iter= 11 NonCon=     0 RMS=4.16D-09 Max=1.40D-07
 Linear equations converged to 1.853D-08 1.853D-07 after    11 iterations.
 FoFJK:  IHMeth= 1 ICntrl=     0 DoSepK=T KAlg= 1 I1Cent= 0 FoldK=F
 FoFJK:  IHMeth= 1 ICntrl=     0 DoSepK=T KAlg= 1 I1Cent= 0 FoldK=F
 FoFJK:  IHMeth= 1 ICntrl=     0 DoSepK=T KAlg= 1 I1Cent= 0 FoldK=F
 LinEq1:  Iter=  0 NonCon=     1 RMS=2.84D-07 Max=1.48D-05
 FoFJK:  IHMeth= 1 ICntrl=     0 DoSepK=T KAlg= 1 I1Cent= 0 FoldK=F
 LinEq1:  Iter=  1 NonCon=     1 RMS=1.52D-07 Max=7.35D-06
 FoFJK:  IHMeth= 1 ICntrl=     0 DoSepK=T KAlg= 1 I1Cent= 0 FoldK=F
 LinEq1:  Iter=  2 NonCon=     1 RMS=7.49D-08 Max=4.54D-06
 FoFJK:  IHMeth= 1 ICntrl=     0 DoSepK=T KAlg= 1 I1Cent= 0 FoldK=F
 LinEq1:  Iter=  3 NonCon=     1 RMS=4.09D-08 Max=8.13D-07
 FoFJK:  IHMeth= 1 ICntrl=     0 DoSepK=T KAlg= 1 I1Cent= 0 FoldK=F
 LinEq1:  Iter=  4 NonCon=     1 RMS=3.51D-08 Max=2.55D-06
 FoFJK:  IHMeth= 1 ICntrl=     0 DoSepK=T KAlg= 1 I1Cent= 0 FoldK=F
 LinEq1:  Iter=  5 NonCon=     1 RMS=1.89D-08 Max=7.25D-07
 FoFJK:  IHMeth= 1 ICntrl=     0 DoSepK=T KAlg= 1 I1Cent= 0 FoldK=F
 LinEq1:  Iter=  6 NonCon=     1 RMS=1.07D-08 Max=5.01D-07
 FoFJK:  IHMeth= 1 ICntrl=     0 DoSepK=T KAlg= 1 I1Cent= 0 FoldK=F
 LinEq1:  Iter=  7 NonCon=     1 RMS=5.20D-09 Max=2.91D-07
 FoFJK:  IHMeth= 1 ICntrl=     0 DoSepK=T KAlg= 1 I1Cent= 0 FoldK=F
 LinEq1:  Iter=  8 NonCon=     1 RMS=2.99D-09 Max=1.62D-07
 FoFJK:  IHMeth= 1 ICntrl=     0 DoSepK=T KAlg= 1 I1Cent= 0 FoldK=F
 LinEq1:  Iter=  9 NonCon=     1 RMS=1.23D-09 Max=4.56D-08
 FoFJK:  IHMeth= 1 ICntrl=     0 DoSepK=T KAlg= 1 I1Cent= 0 FoldK=F
 LinEq1:  Iter= 10 NonCon=     1 RMS=6.46D-10 Max=1.88D-08
 FoFJK:  IHMeth= 1 ICntrl=     0 DoSepK=T KAlg= 1 I1Cent= 0 FoldK=F
 LinEq1:  Iter= 11 NonCon=     1 RMS=2.57D-10 Max=7.07D-09
 FoFJK:  IHMeth= 1 ICntrl=     0 DoSepK=T KAlg= 1 I1Cent= 0 FoldK=F
 LinEq1:  Iter= 12 NonCon=     1 RMS=1.48D-10 Max=6.28D-09
 FoFJK:  IHMeth= 1 ICntrl=     0 DoSepK=T KAlg= 1 I1Cent= 0 FoldK=F
 LinEq1:  Iter= 13 NonCon=     0 RMS=7.25D-11 Max=3.71D-09
 Linear equations converged to 3.994D-10 3.994D-09 after    13 iterations.
 FoFJK:  IHMeth= 1 ICntrl=     0 DoSepK=T KAlg= 1 I1Cent= 0 FoldK=F
 SCF Done:  E(RCAM-B3LYP) =  -567.301939117     a.u. after    9 cycles
            Convg  =    0.2429D-08                    52 Fock formations.
              S**2 =  0.0000                  -V/T =  2.0041

 **********************************************************************

            Population analysis using the SCF density.

 **********************************************************************

 Orbital symmetries:
       Occupied  (A) (A) (A) (A) (A) (A) (A) (A) (A) (A) (A) (A)
                 (A) (A) (A) (A) (A) (A) (A) (A) (A) (A) (A) (A)
                 (A) (A) (A) (A) (A) (A) (A) (A) (A) (A) (A) (A)
                 (A) (A) (A) (A)
       Virtual   (A) (A) (A) (A) (A) (A) (A) (A) (A) (A) (A) (A)
                 (A) (A) (A) (A) (A) (A) (A) (A) (A) (A) (A) (A)
                 (A) (A) (A) (A) (A) (A) (A) (A) (A) (A) (A) (A)
                 (A) (A) (A) (A) (A) (A) (A) (A) (A) (A) (A) (A)
                 (A) (A) (A) (A) (A) (A) (A) (A) (A) (A) (A) (A)
                 (A) (A) (A) (A) (A) (A) (A) (A) (A) (A) (A) (A)
                 (A) (A) (A) (A) (A) (A) (A) (A) (A) (A) (A) (A)
                 (A) (A) (A) (A) (A) (A) (A) (A) (A) (A) (A) (A)
                 (A) (A) (A) (A) (A) (A) (A) (A) (A) (A) (A) (A)
                 (A) (A) (A) (A) (A) (A) (A) (A) (A) (A) (A) (A)
                 (A) (A) (A) (A) (A) (A) (A) (A) (A) (A) (A) (A)
                 (A) (A) (A) (A) (A) (A) (A) (A) (A) (A) (A) (A)
                 (A) (A) (A) (A) (A) (A) (A) (A) (A) (A) (A) (A)
                 (A) (A) (A) (A) (A) (A) (A) (A) (A) (A) (A) (A)
                 (A) (A) (A) (A) (A) (A) (A) (A) (A) (A) (A) (A)
                 (A) (A) (A) (A) (A) (A) (A) (A) (A) (A) (A) (A)
                 (A) (A) (A) (A) (A) (A) (A) (A) (A) (A) (A) (A)
                 (A) (A) (A) (A) (A) (A) (A) (A) (A) (A) (A) (A)
                 (A) (A) (A) (A) (A) (A) (A) (A) (A) (A) (A) (A)
                 (A) (A) (A) (A) (A) (A) (A) (A) (A) (A) (A) (A)
                 (A) (A) (A) (A) (A) (A) (A) (A) (A) (A) (A) (A)
                 (A) (A) (A) (A) (A) (A) (A) (A) (A) (A) (A) (A)
                 (A) (A) (A) (A) (A) (A) (A) (A) (A) (A) (A) (A)
                 (A) (A) (A) (A) (A) (A) (A) (A) (A) (A) (A) (A)
                 (A) (A) (A) (A) (A) (A) (A) (A) (A) (A) (A) (A)
                 (A) (A) (A) (A) (A) (A) (A) (A) (A) (A) (A) (A)
                 (A) (A) (A) (A) (A) (A) (A) (A) (A) (A) (A) (A)
                 (A) (A) (A) (A) (A) (A) (A) (A) (A) (A) (A) (A)
                 (A) (A) (A) (A) (A) (A) (A) (A) (A) (A) (A) (A)
                 (A) (A) (A) (A) (A) (A) (A) (A) (A) (A) (A) (A)
                 (A) (A) (A) (A) (A) (A) (A) (A) (A) (A) (A) (A)
                 (A) (A) (A) (A) (A) (A) (A) (A) (A) (A) (A) (A)
                 (A) (A) (A) (A) (A) (A) (A) (A) (A) (A) (A) (A)
                 (A) (A) (A) (A) (A) (A) (A) (A) (A) (A) (A) (A)
                 (A) (A) (A) (A) (A) (A) (A) (A) (A) (A) (A) (A)
                 (A) (A) (A) (A) (A) (A) (A) (A) (A)
 The electronic state is 1-A.
 Alpha  occ. eigenvalues --  -19.24940 -19.23049 -19.23036 -14.63031 -14.42177
 Alpha  occ. eigenvalues --  -10.32867 -10.32177 -10.30779 -10.27836 -10.27713
 Alpha  occ. eigenvalues --  -10.27215  -1.30887  -1.16870  -1.13266  -1.03258
 Alpha  occ. eigenvalues --   -0.96838  -0.87880  -0.85245  -0.78022  -0.73745
 Alpha  occ. eigenvalues --   -0.67808  -0.64654  -0.62566  -0.61456  -0.61080
 Alpha  occ. eigenvalues --   -0.60551  -0.58037  -0.54107  -0.52903  -0.52052
 Alpha  occ. eigenvalues --   -0.50603  -0.46442  -0.45315  -0.44541  -0.41003
 Alpha  occ. eigenvalues --   -0.38123  -0.37766  -0.36483  -0.32165  -0.28238
 Alpha virt. eigenvalues --   -0.04698  -0.00343   0.01381   0.02853   0.04057
 Alpha virt. eigenvalues --    0.04957   0.06215   0.06783   0.07262   0.07537
 Alpha virt. eigenvalues --    0.09425   0.09903   0.10540   0.11407   0.11909
 Alpha virt. eigenvalues --    0.13207   0.13250   0.13608   0.14678   0.15075
 Alpha virt. eigenvalues --    0.15713   0.16096   0.18627   0.18964   0.19148
 Alpha virt. eigenvalues --    0.19823   0.20352   0.21024   0.21229   0.21958
 Alpha virt. eigenvalues --    0.22283   0.23438   0.23595   0.24319   0.25390
 Alpha virt. eigenvalues --    0.25840   0.26166   0.26573   0.26933   0.27437
 Alpha virt. eigenvalues --    0.27906   0.28164   0.28709   0.29229   0.30192
 Alpha virt. eigenvalues --    0.30243   0.30507   0.30828   0.31570   0.32228
 Alpha virt. eigenvalues --    0.33430   0.33828   0.34671   0.35137   0.35409
 Alpha virt. eigenvalues --    0.36279   0.36570   0.37930   0.38105   0.38354
 Alpha virt. eigenvalues --    0.38845   0.39517   0.39990   0.40452   0.40859
 Alpha virt. eigenvalues --    0.41605   0.41982   0.42625   0.43201   0.44096
 Alpha virt. eigenvalues --    0.45008   0.45920   0.46353   0.46830   0.47037
 Alpha virt. eigenvalues --    0.47912   0.48104   0.48688   0.49038   0.49698
 Alpha virt. eigenvalues --    0.49890   0.50507   0.51244   0.51664   0.53076
 Alpha virt. eigenvalues --    0.53700   0.54553   0.55225   0.55767   0.56862
 Alpha virt. eigenvalues --    0.57608   0.57742   0.58616   0.59044   0.59706
 Alpha virt. eigenvalues --    0.60225   0.60982   0.61599   0.61821   0.62157
 Alpha virt. eigenvalues --    0.63356   0.63955   0.64923   0.65704   0.65823
 Alpha virt. eigenvalues --    0.67281   0.67422   0.67902   0.68581   0.69312
 Alpha virt. eigenvalues --    0.69702   0.69912   0.70674   0.71052   0.72377
 Alpha virt. eigenvalues --    0.73068   0.73391   0.74242   0.74421   0.74854
 Alpha virt. eigenvalues --    0.75787   0.76462   0.76745   0.77221   0.78070
 Alpha virt. eigenvalues --    0.78740   0.79163   0.80352   0.80581   0.81168
 Alpha virt. eigenvalues --    0.81845   0.82313   0.82631   0.84319   0.85982
 Alpha virt. eigenvalues --    0.86445   0.86864   0.87937   0.89194   0.89951
 Alpha virt. eigenvalues --    0.91467   0.92724   0.93558   0.94965   0.96142
 Alpha virt. eigenvalues --    0.96979   0.97579   0.98211   0.99450   1.00092
 Alpha virt. eigenvalues --    1.01475   1.02674   1.03615   1.04333   1.05085
 Alpha virt. eigenvalues --    1.05745   1.07001   1.09056   1.10210   1.11173
 Alpha virt. eigenvalues --    1.12491   1.13626   1.14937   1.15880   1.17292
 Alpha virt. eigenvalues --    1.19141   1.21831   1.23541   1.24814   1.25384
 Alpha virt. eigenvalues --    1.26884   1.27867   1.32053   1.33842   1.34891
 Alpha virt. eigenvalues --    1.36025   1.36924   1.37970   1.39136   1.43444
 Alpha virt. eigenvalues --    1.45042   1.45642   1.47097   1.47973   1.51126
 Alpha virt. eigenvalues --    1.51682   1.52598   1.54689   1.54852   1.57446
 Alpha virt. eigenvalues --    1.60594   1.61680   1.63557   1.65563   1.68704
 Alpha virt. eigenvalues --    1.70349   1.71179   1.72593   1.73597   1.77246
 Alpha virt. eigenvalues --    1.79869   1.80301   1.81830   1.83097   1.84095
 Alpha virt. eigenvalues --    1.85434   1.85879   1.87424   1.89800   1.90688
 Alpha virt. eigenvalues --    1.92740   1.93248   1.94597   1.95604   1.97128
 Alpha virt. eigenvalues --    1.98407   1.99160   2.00913   2.01395   2.04349
 Alpha virt. eigenvalues --    2.04833   2.09413   2.10184   2.10739   2.12598
 Alpha virt. eigenvalues --    2.15481   2.19294   2.19967   2.21775   2.23795
 Alpha virt. eigenvalues --    2.24190   2.27459   2.29345   2.31734   2.33093
 Alpha virt. eigenvalues --    2.34415   2.36511   2.37245   2.38425   2.40610
 Alpha virt. eigenvalues --    2.42397   2.42518   2.43928   2.45293   2.46021
 Alpha virt. eigenvalues --    2.48350   2.52792   2.58183   2.59650   2.61496
 Alpha virt. eigenvalues --    2.65481   2.66344   2.68401   2.69654   2.70661
 Alpha virt. eigenvalues --    2.72085   2.73473   2.74567   2.81067   2.84067
 Alpha virt. eigenvalues --    2.85204   2.86386   2.86797   2.87455   2.88692
 Alpha virt. eigenvalues --    2.90559   2.93379   2.94207   2.96601   2.97586
 Alpha virt. eigenvalues --    2.98828   2.99277   3.02986   3.04072   3.05533
 Alpha virt. eigenvalues --    3.05838   3.07949   3.10990   3.12041   3.12737
 Alpha virt. eigenvalues --    3.13841   3.16886   3.17852   3.18771   3.21667
 Alpha virt. eigenvalues --    3.23526   3.24592   3.28580   3.30736   3.31395
 Alpha virt. eigenvalues --    3.32689   3.33920   3.34631   3.35645   3.36204
 Alpha virt. eigenvalues --    3.39305   3.40051   3.40952   3.42126   3.45644
 Alpha virt. eigenvalues --    3.46073   3.46616   3.48038   3.48993   3.50973
 Alpha virt. eigenvalues --    3.51875   3.53795   3.54209   3.56518   3.57402
 Alpha virt. eigenvalues --    3.58718   3.60360   3.61604   3.65071   3.65377
 Alpha virt. eigenvalues --    3.66618   3.70214   3.71441   3.71797   3.77907
 Alpha virt. eigenvalues --    3.83645   3.86563   3.89736   3.93479   3.95564
 Alpha virt. eigenvalues --    3.97374   3.99378   4.03560   4.06125   4.09510
 Alpha virt. eigenvalues --    4.14091   4.16978   4.18689   4.19802   4.22639
 Alpha virt. eigenvalues --    4.25820   4.27314   4.29090   4.29768   4.33135
 Alpha virt. eigenvalues --    4.35053   4.37016   4.40211   4.40593   4.48698
 Alpha virt. eigenvalues --    4.49400   4.51499   4.61364   4.65150   4.69585
 Alpha virt. eigenvalues --    4.73338   4.74715   4.77543   4.81071   4.82868
 Alpha virt. eigenvalues --    4.84282   4.86588   4.90024   4.92164   4.94170
 Alpha virt. eigenvalues --    4.95188   4.96600   4.97609   5.02694   5.04400
 Alpha virt. eigenvalues --    5.08072   5.13404   5.19446   5.21141   5.21938
 Alpha virt. eigenvalues --    5.24091   5.26748   5.28103   5.30093   5.37511
 Alpha virt. eigenvalues --    5.37999   5.39761   5.40518   5.42390   5.48039
 Alpha virt. eigenvalues --    5.50931   5.52747   5.55547   5.60081   5.60521
 Alpha virt. eigenvalues --    5.67651   5.68870   5.72690   5.73860   5.78621
 Alpha virt. eigenvalues --    5.90960   5.95292   5.99928   6.05963   6.10289
 Alpha virt. eigenvalues --    6.14104   6.32469   6.41695   6.43740   6.51377
 Alpha virt. eigenvalues --    6.52365   6.58515   6.60803   6.62499   6.68124
 Alpha virt. eigenvalues --    6.85846   6.89637   6.93167   6.94695   6.97821
 Alpha virt. eigenvalues --    7.10974   7.22848   7.29515   7.34386   7.43797
 Alpha virt. eigenvalues --    7.52202   7.82370   7.84572  22.71955  22.91990
 Alpha virt. eigenvalues --   22.95269  23.09203  23.19489  23.49340  32.45452
 Alpha virt. eigenvalues --   32.79663  44.27300  44.46159  44.62891
          Condensed to atoms (all electrons):
              1          2          3          4          5          6
     1  C    7.851746   0.512991  -0.732426  -0.017433  -0.521610  -0.752472
     2  C    0.512991   6.457897   0.399163  -0.018092  -0.109797  -1.105802
     3  C   -0.732426   0.399163   6.619649   0.085019  -0.199757   0.149920
     4  C   -0.017433  -0.018092   0.085019   7.473501  -0.401643  -0.853654
     5  C   -0.521610  -0.109797  -0.199757  -0.401643   6.853511  -0.066884
     6  C   -0.752472  -1.105802   0.149920  -0.853654  -0.066884   8.140709
     7  H    0.319323   0.058457   0.020319  -0.001014  -0.011711  -0.216250
     8  H    0.009858  -0.054259   0.311715  -0.111998   0.002066   0.009909
     9  H   -0.008150   0.005193  -0.040280   0.417324  -0.205851   0.018193
    10  N   -0.216096   0.505637  -0.151952  -0.004179   0.022038  -0.043348
    11  O    0.041177  -0.058899  -0.027202   0.006047  -0.010613  -0.000314
    12  O   -0.022855  -0.068325   0.021363  -0.003152  -0.007270   0.031844
    13  N   -0.010049   0.002827   0.012870  -0.004163   0.066962   0.002880
    14  H   -0.009096  -0.000470  -0.004521  -0.044153   0.032812  -0.021776
    15  H   -0.017315  -0.001866   0.003641  -0.009796   0.007709  -0.043310
    16  O   -0.151414   0.014517  -0.007676   0.028578   0.020411   0.026750
    17  H    0.089379   0.012355   0.002909  -0.008657  -0.020161  -0.053946
              7          8          9         10         11         12
     1  C    0.319323   0.009858  -0.008150  -0.216096   0.041177  -0.022855
     2  C    0.058457  -0.054259   0.005193   0.505637  -0.058899  -0.068325
     3  C    0.020319   0.311715  -0.040280  -0.151952  -0.027202   0.021363
     4  C   -0.001014  -0.111998   0.417324  -0.004179   0.006047  -0.003152
     5  C   -0.011711   0.002066  -0.205851   0.022038  -0.010613  -0.007270
     6  C   -0.216250   0.009909   0.018193  -0.043348  -0.000314   0.031844
     7  H    0.441204   0.001358  -0.000366   0.000996  -0.002744  -0.005468
     8  H    0.001358   0.390372  -0.001638   0.005032   0.001633  -0.002700
     9  H   -0.000366  -0.001638   0.544097  -0.000449  -0.000093   0.000103
    10  N    0.000996   0.005032  -0.000449   5.812529   0.089878   0.091151
    11  O   -0.002744   0.001633  -0.000093   0.089878   8.640473  -0.101344
    12  O   -0.005468  -0.002700   0.000103   0.091151  -0.101344   8.651455
    13  N    0.000753   0.000238   0.018023  -0.000388   0.000206   0.000115
    14  H   -0.000301  -0.000185   0.018886   0.000017  -0.000005   0.000003
    15  H   -0.000549   0.000181  -0.001822  -0.000021   0.000012   0.000013
    16  O    0.002145  -0.000208  -0.002064  -0.001245   0.000194   0.000704
    17  H   -0.003310   0.000040   0.000190   0.000304  -0.000036  -0.000120
             13         14         15         16         17
     1  C   -0.010049  -0.009096  -0.017315  -0.151414   0.089379
     2  C    0.002827  -0.000470  -0.001866   0.014517   0.012355
     3  C    0.012870  -0.004521   0.003641  -0.007676   0.002909
     4  C   -0.004163  -0.044153  -0.009796   0.028578  -0.008657
     5  C    0.066962   0.032812   0.007709   0.020411  -0.020161
     6  C    0.002880  -0.021776  -0.043310   0.026750  -0.053946
     7  H    0.000753  -0.000301  -0.000549   0.002145  -0.003310
     8  H    0.000238  -0.000185   0.000181  -0.000208   0.000040
     9  H    0.018023   0.018886  -0.001822  -0.002064   0.000190
    10  N   -0.000388   0.000017  -0.000021  -0.001245   0.000304
    11  O    0.000206  -0.000005   0.000012   0.000194  -0.000036
    12  O    0.000115   0.000003   0.000013   0.000704  -0.000120
    13  N    6.696061   0.304512   0.350785   0.019040   0.001962
    14  H    0.304512   0.527200  -0.018343  -0.004291   0.000523
    15  H    0.350785  -0.018343   0.470513   0.037955  -0.004161
    16  O    0.019040  -0.004291   0.037955   8.305161   0.191591
    17  H    0.001962   0.000523  -0.004161   0.191591   0.509549
 Mulliken atomic charges:
              1
     1  C   -0.365559
     2  C   -0.551526
     3  C   -0.462751
     4  C   -0.532534
     5  C    0.549789
     6  C    0.777551
     7  H    0.397157
     8  H    0.438588
     9  H    0.238704
    10  N    0.890098
    11  O   -0.578369
    12  O   -0.585516
    13  N   -0.462636
    14  H    0.219189
    15  H    0.226374
    16  O   -0.480148
    17  H    0.281590
 Sum of Mulliken atomic charges =   0.00000
 Mulliken charges with hydrogens summed into heavy atoms:
              1
     1  C    0.031599
     2  C   -0.551526
     3  C   -0.024164
     4  C   -0.293830
     5  C    0.549789
     6  C    0.777551
    10  N    0.890098
    11  O   -0.578369
    12  O   -0.585516
    13  N   -0.017073
    16  O   -0.198558
 Sum of Mulliken charges with hydrogens summed into heavy atoms =   0.00000
 Electronic spatial extent (au):  <R**2>=           1812.1131
 Charge=              0.0000 electrons
 Dipole moment (field-independent basis, Debye):
    X=              5.6799    Y=             -0.3207    Z=             -1.1908  Tot=              5.8122
 Quadrupole moment (field-independent basis, Debye-Ang):
   XX=            -72.1144   YY=            -53.8915   ZZ=            -65.3466
   XY=             -2.0698   XZ=             -4.6755   YZ=             -0.1957
 Traceless Quadrupole moment (field-independent basis, Debye-Ang):
   XX=             -8.3302   YY=              9.8926   ZZ=             -1.5624
   XY=             -2.0698   XZ=             -4.6755   YZ=             -0.1957
 Octapole moment (field-independent basis, Debye-Ang**2):
  XXX=             79.0942  YYY=             15.6388  ZZZ=              1.5816  XYY=             18.5973
  XXY=            -14.6273  XXZ=            -17.7188  XZZ=             -8.6026  YZZ=              4.0656
  YYZ=              0.4477  XYZ=             -0.4906
 Hexadecapole moment (field-independent basis, Debye-Ang**3):
 XXXX=          -1682.7486 YYYY=           -448.8620 ZZZZ=            -78.1398 XXXY=            -40.4805
 XXXZ=            -62.2638 YYYX=             14.5330 YYYZ=              2.1848 ZZZX=             -0.1425
 ZZZY=              2.6196 XXYY=           -360.8146 XXZZ=           -289.3659 YYZZ=           -111.7917
 XXYZ=              7.5702 YYXZ=             -4.5393 ZZXY=              3.5635
 N-N= 5.955185394820D+02 E-N=-2.518662363561D+03  KE= 5.649936621432D+02
 Calling FoFJK, ICntrl=      2127 FMM=F ISym2X=0 I1Cent= 0 IOpClX= 0 NMat=1 NMatS=1 NMatT=0.
 FoFJK:  IHMeth= 1 ICntrl=  2127 DoSepK=T KAlg= 1 I1Cent= 0 FoldK=F
 ***** Axes restored to original set *****
 -------------------------------------------------------------------
 Center     Atomic                   Forces (Hartrees/Bohr)
 Number     Number              X              Y              Z
 -------------------------------------------------------------------
      1        6           0.011647919    0.005231189   -0.017898484
      2        6           0.009119665    0.002934832    0.003023762
      3        6          -0.000179148   -0.007231316    0.003293717
      4        6           0.005781484    0.004641176   -0.001949204
      5        6           0.011305660   -0.001310044   -0.001235148
      6        6          -0.052820119    0.018239724   -0.004130071
      7        1          -0.005701700   -0.001778044   -0.001097431
      8        1          -0.000165073   -0.000942831    0.001713738
      9        1          -0.000653110    0.000823967    0.001425994
     10        7          -0.000096031    0.013553864   -0.001056886
     11        8           0.002003912   -0.007540024    0.019911760
     12        8          -0.001051862   -0.007443438   -0.019802962
     13        7           0.000420426    0.002756279   -0.000790196
     14        1          -0.001716111    0.000596393    0.002204433
     15        1          -0.003546636   -0.000105360   -0.002374055
     16        8           0.026880518   -0.017843210    0.021013067
     17        1          -0.001229794   -0.004583158   -0.002252032
 -------------------------------------------------------------------
 Cartesian Forces:  Max     0.052820119 RMS     0.011424610

 GradGradGradGradGradGradGradGradGradGradGradGradGradGradGradGradGradGrad
 Berny optimization.
 Internal  Forces:  Max     0.024959946 RMS     0.006985438
 Search for a local minimum.
 Step number   1 out of a maximum of   86
 All quantities printed in internal units (Hartrees-Bohrs-Radians)
 Mixed Optimization -- RFO/linear search
 Second derivative matrix not updated -- first step.
     Eigenvalues ---    0.00940   0.00940   0.01863   0.01974   0.02064
     Eigenvalues ---    0.02116   0.02155   0.02203   0.02240   0.02257
     Eigenvalues ---    0.02270   0.02281   0.03050   0.03975   0.16000
     Eigenvalues ---    0.16000   0.16000   0.16000   0.16000   0.16000
     Eigenvalues ---    0.21858   0.22265   0.23269   0.24179   0.24971
     Eigenvalues ---    0.25000   0.25000   0.25000   0.35403   0.35558
     Eigenvalues ---    0.35874   0.37360   0.42238   0.43008   0.45937
     Eigenvalues ---    0.46142   0.46248   0.46966   0.47855   0.48318
     Eigenvalues ---    0.49341   0.51946   0.53868   0.90730   0.91339
     Eigenvalues --- 1000.000001000.000001000.000001000.000001000.00000
     Eigenvalues --- 1000.000001000.000001000.000001000.000001000.00000
     Eigenvalues --- 1000.000001000.000001000.000001000.000001000.00000
     Eigenvalues --- 1000.000001000.000001000.000001000.000001000.00000
     Eigenvalues --- 1000.000001000.000001000.000001000.000001000.00000
     Eigenvalues --- 1000.000001000.000001000.000001000.000001000.00000
     Eigenvalues --- 1000.00000
 RFO step:  Lambda=-2.96329166D-02 EMin= 9.39576023D-03
 Linear search not attempted -- first point.
 Maximum step size (   0.300) exceeded in Quadratic search.
    -- Step size scaled by   0.455
 Iteration  1 RMS(Cart)=  0.04562144 RMS(Int)=  0.00211717
 Iteration  2 RMS(Cart)=  0.00237431 RMS(Int)=  0.00090096
 Iteration  3 RMS(Cart)=  0.00000165 RMS(Int)=  0.00090095
 Iteration  4 RMS(Cart)=  0.00000000 RMS(Int)=  0.00090095
 Variable       Old X    -DE/DX   Delta X   Delta X   Delta X     New X
                                 (Linear)    (Quad)   (Total)
    R1        2.62566  -0.00571   0.00000  -0.00517  -0.00517   2.62048
    R2        2.61318   0.00374   0.00000   0.00222   0.00273   2.61591
    R3        2.04779  -0.00202   0.00000  -0.00238  -0.00238   2.04541
    R4        2.61768  -0.00394   0.00000  -0.00248  -0.00298   2.61470
    R5        2.75307  -0.00153   0.00000  -0.00172  -0.00172   2.75135
    R6        2.62179  -0.00885   0.00000  -0.00684  -0.00735   2.61444
    R7        2.04279  -0.00191   0.00000  -0.00224  -0.00224   2.04055
    R8        2.63641  -0.00276   0.00000  -0.00247  -0.00249   2.63392
    R9        2.05026  -0.00163   0.00000  -0.00193  -0.00193   2.04833
   R10        2.65487   0.00205   0.00000   0.00083   0.00133   2.65620
   R11        2.60536  -0.00363   0.00000  -0.00316  -0.00316   2.60220
   R12        2.57951   0.01647   0.00000   0.01364   0.01364   2.59314
   R13        2.32322  -0.02121   0.00000  -0.01022  -0.01022   2.31300
   R14        2.32598  -0.02102   0.00000  -0.01020  -0.01020   2.31578
   R15        1.90672  -0.00265   0.00000  -0.00245  -0.00245   1.90427
   R16        1.90902  -0.00337   0.00000  -0.00313  -0.00313   1.90589
   R17        1.82852  -0.00462   0.00000  -0.00369  -0.00369   1.82483
    A1        2.07078   0.00565   0.00000   0.00444   0.00554   2.07632
    A2        2.09189  -0.00276   0.00000  -0.00210  -0.00270   2.08919
    A3        2.12051  -0.00289   0.00000  -0.00240  -0.00298   2.11753
    A4        2.12802  -0.00141   0.00000  -0.00357  -0.00346   2.12456
    A5        2.06839   0.00180   0.00000   0.00358   0.00352   2.07191
    A6        2.08677  -0.00040   0.00000   0.00000  -0.00006   2.08672
    A7        2.06750   0.00156   0.00000   0.00378   0.00335   2.07084
    A8        2.09401  -0.00086   0.00000  -0.00208  -0.00188   2.09213
    A9        2.12168  -0.00070   0.00000  -0.00169  -0.00148   2.12020
   A10        2.12132   0.00023   0.00000  -0.00074  -0.00065   2.12067
   A11        2.08763  -0.00019   0.00000   0.00017   0.00012   2.08775
   A12        2.07422  -0.00003   0.00000   0.00058   0.00054   2.07476
   A13        2.06284   0.00411   0.00000   0.00171   0.00280   2.06564
   A14        2.14105  -0.00400   0.00000  -0.00422  -0.00481   2.13625
   A15        2.07825  -0.00011   0.00000   0.00236   0.00184   2.08008
   A16        2.11591  -0.01013   0.00000  -0.00556  -0.00767   2.10824
   A17        2.01065   0.02496   0.00000   0.06843   0.06526   2.07591
   A18        2.01328  -0.00548   0.00000   0.01197   0.00730   2.02058
   A19        2.05562   0.00213   0.00000   0.00346   0.00344   2.05907
   A20        2.05384   0.00195   0.00000   0.00317   0.00316   2.05699
   A21        2.17373  -0.00408   0.00000  -0.00662  -0.00664   2.16709
   A22        2.02906   0.00076   0.00000   0.00443   0.00436   2.03342
   A23        2.01626   0.00221   0.00000   0.00792   0.00785   2.02410
   A24        1.99321  -0.00046   0.00000   0.00238   0.00228   1.99549
   A25        1.90762   0.00456   0.00000   0.01093   0.01093   1.91855
    D1       -0.00122   0.00090   0.00000   0.00848   0.00823   0.00700
    D2       -3.14011   0.00021   0.00000   0.00508   0.00506  -3.13506
    D3        3.13571   0.00032   0.00000  -0.00490  -0.00549   3.13022
    D4       -0.00318  -0.00037   0.00000  -0.00829  -0.00866  -0.01184
    D5       -0.00194   0.00235   0.00000   0.00772   0.00769   0.00575
    D6       -2.56786  -0.01358   0.00000  -0.13381  -0.13541  -2.70327
    D7       -3.13880   0.00294   0.00000   0.02133   0.02164  -3.11716
    D8        0.57847  -0.01299   0.00000  -0.12021  -0.12147   0.45700
    D9        0.00271  -0.00229   0.00000  -0.01458  -0.01445  -0.01174
   D10       -3.13992  -0.00103   0.00000  -0.00727  -0.00713   3.13614
   D11        3.14158  -0.00159   0.00000  -0.01115  -0.01125   3.13033
   D12       -0.00106  -0.00032   0.00000  -0.00383  -0.00392  -0.00498
   D13        3.13631   0.00111   0.00000   0.01066   0.01056  -3.13632
   D14       -0.00494   0.00030   0.00000   0.00120   0.00109  -0.00385
   D15       -0.00265   0.00044   0.00000   0.00736   0.00746   0.00482
   D16        3.13929  -0.00038   0.00000  -0.00211  -0.00200   3.13729
   D17       -0.00108   0.00048   0.00000   0.00468   0.00487   0.00379
   D18        3.13427   0.00153   0.00000   0.00586   0.00574   3.14001
   D19        3.14157  -0.00080   0.00000  -0.00276  -0.00257   3.13900
   D20       -0.00626   0.00024   0.00000  -0.00157  -0.00171  -0.00797
   D21       -0.00193   0.00258   0.00000   0.01068   0.01035   0.00841
   D22        3.08995   0.00253   0.00000   0.00722   0.00666   3.09661
   D23       -3.13733   0.00154   0.00000   0.00951   0.00949  -3.12784
   D24       -0.04545   0.00150   0.00000   0.00605   0.00581  -0.03964
   D25        0.00347  -0.00405   0.00000  -0.01702  -0.01672  -0.01324
   D26        2.56858   0.02124   0.00000   0.14201   0.14020   2.70878
   D27       -3.09024  -0.00388   0.00000  -0.01350  -0.01296  -3.10320
   D28       -0.52513   0.02140   0.00000   0.14554   0.14395  -0.38118
   D29        0.43343  -0.00095   0.00000  -0.00269  -0.00262   0.43081
   D30        2.84042   0.00204   0.00000   0.01690   0.01701   2.85743
   D31       -2.75829  -0.00088   0.00000  -0.00619  -0.00631  -2.76460
   D32       -0.35131   0.00211   0.00000   0.01339   0.01333  -0.33798
   D33       -0.55243   0.00616   0.00000   0.06150   0.06357  -0.48886
   D34        3.13030  -0.00646   0.00000  -0.06412  -0.06619   3.06411
         Item               Value     Threshold  Converged?
 Maximum Force            0.024960     0.000015     NO 
 RMS     Force            0.006985     0.000010     NO 
 Maximum Displacement     0.187645     0.000060     NO 
 RMS     Displacement     0.045487     0.000040     NO 
 Predicted change in Energy=-1.177075D-02
 GradGradGradGradGradGradGradGradGradGradGradGradGradGradGradGradGradGrad

                          Input orientation:                          
 ---------------------------------------------------------------------
 Center     Atomic      Atomic             Coordinates (Angstroms)
 Number     Number       Type             X           Y           Z
 ---------------------------------------------------------------------
      1          6           0       -0.321330   -0.233464   -0.005483
      2          6           0       -0.481225    0.423978   -1.215912
      3          6           0       -0.500388   -0.260027   -2.418505
      4          6           0       -0.341255   -1.634257   -2.402622
      5          6           0       -0.168508   -2.333750   -1.209485
      6          6           0       -0.168996   -1.609338   -0.004932
      7          1           0       -0.300607    0.335367    0.915143
      8          1           0       -0.631821    0.281724   -3.343291
      9          1           0       -0.355198   -2.185984   -3.335526
     10          7           0       -0.632714    1.872019   -1.210698
     11          8           0       -0.778617    2.437936   -2.286149
     12          8           0       -0.615733    2.445640   -0.127914
     13          7           0       -0.060386   -3.705887   -1.167677
     14          1           0        0.269120   -4.156810   -2.006454
     15          1           0        0.310889   -4.093881   -0.313984
     16          8           0       -0.524136   -2.316300    1.116274
     17          1           0       -0.429251   -1.759992    1.899861
 ---------------------------------------------------------------------
                    Distance matrix (angstroms):
                    1          2          3          4          5
     1  C    0.000000
     2  C    1.386699   0.000000
     3  C    2.419802   1.383640   0.000000
     4  C    2.776489   2.379958   1.383504   0.000000
     5  C    2.425732   2.775409   2.423263   1.393812   0.000000
     6  C    1.384281   2.387118   2.784923   2.403999   1.405603
     7  H    1.082382   2.140530   3.392288   3.858580   3.414042
     8  H    3.391576   2.137442   1.079814   2.154128   3.407124
     9  H    3.860398   3.364603   2.138064   1.083932   2.139332
    10  N    2.445928   1.455953   2.453961   3.714781   4.231310
    11  O    3.542165   2.299973   2.715499   4.097268   4.929546
    12  O    2.698011   2.299772   3.546935   4.679230   4.920607
    13  N    3.671036   4.151532   3.692170   2.428092   1.377025
    14  H    4.443552   4.708672   3.993350   2.625411   2.037210
    15  H    3.923989   4.674608   4.448102   3.292029   2.032192
    16  O    2.374378   3.598618   4.089436   3.589047   2.352855
    17  H    2.443823   3.805321   4.572006   4.305220   3.172573
                    6          7          8          9         10
     6  C    0.000000
     7  H    2.155398   0.000000
     8  H    3.864578   4.271632   0.000000
     9  H    3.385270   4.942508   2.483176   0.000000
    10  N    3.713321   2.644011   2.660261   4.589041   0.000000
    11  O    4.685725   3.859736   2.405898   4.760369   1.223987
    12  O    4.081366   2.374978   3.875750   5.639911   1.225460
    13  N    2.399852   4.552755   4.578305   2.663943   5.607356
    14  H    3.269197   5.388875   4.722225   2.457715   6.147626
    15  H    2.549265   4.637124   5.404750   3.635033   6.106262
    16  O    1.372232   2.668663   5.162271   4.456910   4.792557
    17  H    1.928384   2.318782   5.630301   5.253212   4.786280
                   11         12         13         14         15
    11  O    0.000000
    12  O    2.164387   0.000000
    13  N    6.285968   6.263449   0.000000
    14  H    6.683311   6.921288   1.007697   0.000000
    15  H    6.909492   6.607464   1.008552   1.694155   0.000000
    16  O    5.851838   4.922648   2.713382   3.710547   2.429546
    17  H    5.938631   4.672685   3.651350   4.635921   3.300902
                   16         17
    16  O    0.000000
    17  H    0.965656   0.000000
 Stoichiometry    C6H6N2O3
 Framework group  C1[X(C6H6N2O3)]
 Deg. of freedom    45
 Full point group                 C1      NOp   1
 Largest Abelian subgroup         C1      NOp   1
 Largest concise Abelian subgroup C1      NOp   1
                         Standard orientation:                         
 ---------------------------------------------------------------------
 Center     Atomic      Atomic             Coordinates (Angstroms)
 Number     Number       Type             X           Y           Z
 ---------------------------------------------------------------------
      1          6           0       -0.087203    0.976221   -0.123269
      2          6           0       -0.925907   -0.123227   -0.019705
      3          6           0       -0.429051   -1.411172    0.074060
      4          6           0        0.941713   -1.596817    0.049078
      5          6           0        1.820536   -0.520804   -0.063074
      6          6           0        1.282304    0.775313   -0.141220
      7          1           0       -0.511502    1.968574   -0.205465
      8          1           0       -1.109570   -2.245287    0.158578
      9          1           0        1.348027   -2.598994    0.122948
     10          7           0       -2.365564    0.093767   -0.009645
     11          8           0       -3.093172   -0.885623    0.087959
     12          8           0       -2.771349    1.247318   -0.089694
     13          7           0        3.188158   -0.679434   -0.037668
     14          1           0        3.541562   -1.581133   -0.316053
     15          1           0        3.729734    0.101496   -0.375338
     16          8           0        2.107805    1.790106    0.273225
     17          1           0        1.682961    2.643528    0.119376
 ---------------------------------------------------------------------
 Rotational constants (GHZ):      2.5325473      0.7376364      0.5743257
 Basis read from rwf:  (5D, 7F)
 There are   470 symmetry adapted basis functions of A   symmetry.
 Integral buffers will be    131072 words long.
 Raffenetti 2 integral format.
 Two-electron integral symmetry is turned on.
   470 basis functions,   713 primitive gaussians,   536 cartesian basis functions
    40 alpha electrons       40 beta electrons
       nuclear repulsion energy       595.1327998161 Hartrees.
 NAtoms=   17 NActive=   17 NUniq=   17 SFac= 7.50D-01 NAtFMM=   80 NAOKFM=F Big=F
 One-electron integrals computed using PRISM.
 NBasis=   470 RedAO= T  NBF=   470
 NBsUse=   469 1.00D-06 NBFU=   469
 Initial guess read from the read-write file.
 B after Tr=     0.000000    0.000000    0.000000
         Rot=    1.000000    0.000000    0.000000    0.000000 Ang=   0.00 deg.
 Initial guess orbital symmetries:
       Occupied  (A) (A) (A) (A) (A) (A) (A) (A) (A) (A) (A) (A)
                 (A) (A) (A) (A) (A) (A) (A) (A) (A) (A) (A) (A)
                 (A) (A) (A) (A) (A) (A) (A) (A) (A) (A) (A) (A)
                 (A) (A) (A) (A)
       Virtual   (A) (A) (A) (A) (A) (A) (A) (A) (A) (A) (A) (A)
                 (A) (A) (A) (A) (A) (A) (A) (A) (A) (A) (A) (A)
                 (A) (A) (A) (A) (A) (A) (A) (A) (A) (A) (A) (A)
                 (A) (A) (A) (A) (A) (A) (A) (A) (A) (A) (A) (A)
                 (A) (A) (A) (A) (A) (A) (A) (A) (A) (A) (A) (A)
                 (A) (A) (A) (A) (A) (A) (A) (A) (A) (A) (A) (A)
                 (A) (A) (A) (A) (A) (A) (A) (A) (A) (A) (A) (A)
                 (A) (A) (A) (A) (A) (A) (A) (A) (A) (A) (A) (A)
                 (A) (A) (A) (A) (A) (A) (A) (A) (A) (A) (A) (A)
                 (A) (A) (A) (A) (A) (A) (A) (A) (A) (A) (A) (A)
                 (A) (A) (A) (A) (A) (A) (A) (A) (A) (A) (A) (A)
                 (A) (A) (A) (A) (A) (A) (A) (A) (A) (A) (A) (A)
                 (A) (A) (A) (A) (A) (A) (A) (A) (A) (A) (A) (A)
                 (A) (A) (A) (A) (A) (A) (A) (A) (A) (A) (A) (A)
                 (A) (A) (A) (A) (A) (A) (A) (A) (A) (A) (A) (A)
                 (A) (A) (A) (A) (A) (A) (A) (A) (A) (A) (A) (A)
                 (A) (A) (A) (A) (A) (A) (A) (A) (A) (A) (A) (A)
                 (A) (A) (A) (A) (A) (A) (A) (A) (A) (A) (A) (A)
                 (A) (A) (A) (A) (A) (A) (A) (A) (A) (A) (A) (A)
                 (A) (A) (A) (A) (A) (A) (A) (A) (A) (A) (A) (A)
                 (A) (A) (A) (A) (A) (A) (A) (A) (A) (A) (A) (A)
                 (A) (A) (A) (A) (A) (A) (A) (A) (A) (A) (A) (A)
                 (A) (A) (A) (A) (A) (A) (A) (A) (A) (A) (A) (A)
                 (A) (A) (A) (A) (A) (A) (A) (A) (A) (A) (A) (A)
                 (A) (A) (A) (A) (A) (A) (A) (A) (A) (A) (A) (A)
                 (A) (A) (A) (A) (A) (A) (A) (A) (A) (A) (A) (A)
                 (A) (A) (A) (A) (A) (A) (A) (A) (A) (A) (A) (A)
                 (A) (A) (A) (A) (A) (A) (A) (A) (A) (A) (A) (A)
                 (A) (A) (A) (A) (A) (A) (A) (A) (A) (A) (A) (A)
                 (A) (A) (A) (A) (A) (A) (A) (A) (A) (A) (A) (A)
                 (A) (A) (A) (A) (A) (A) (A) (A) (A) (A) (A) (A)
                 (A) (A) (A) (A) (A) (A) (A) (A) (A) (A) (A) (A)
                 (A) (A) (A) (A) (A) (A) (A) (A) (A) (A) (A) (A)
                 (A) (A) (A) (A) (A) (A) (A) (A) (A) (A) (A) (A)
                 (A) (A) (A) (A) (A) (A) (A) (A) (A) (A) (A) (A)
                 (A) (A) (A) (A) (A) (A) (A) (A) (A)
 Harris functional with IExCor=20419 diagonalized for initial guess.
 ExpMin= 4.85D-02 ExpMax= 2.70D+04 ExpMxC= 9.22D+02 IAcc=3 IRadAn=         5 AccDes= 0.00D+00
 HarFok:  IExCor=20419 AccDes= 0.00D+00 IRadAn=         5 IDoV= 1
 ScaDFX=  1.000000  1.000000  1.000000  1.000000
 FoFCou: FMM=F IPFlag=           0 FMFlag=      100000 FMFlg1=           0
         NFxFlg=           0 DoJE=T BraDBF=F KetDBF=T FulRan=T
         Omega=  0.000000  0.000000  1.000000  0.000000  0.000000 ICntrl=     500 IOpCl=  0
         NMat0=    1 NMatS0=    1 NMatT0=    0 NMatD0=    1 NMtDS0=    0 NMtDT0=    0
         I1Cent=           4 NGrid=           0.
 Petite list used in FoFCou.
 FoFJK:  IHMeth= 1 ICntrl=     0 DoSepK=T KAlg= 1 I1Cent= 0 FoldK=F
 Gradient too large for Newton-Raphson -- use scaled steepest descent instead.
 FoFJK:  IHMeth= 1 ICntrl=     0 DoSepK=T KAlg= 1 I1Cent= 0 FoldK=F
 FoFJK:  IHMeth= 1 ICntrl=     0 DoSepK=T KAlg= 1 I1Cent= 0 FoldK=F
 FoFJK:  IHMeth= 1 ICntrl=     0 DoSepK=T KAlg= 1 I1Cent= 0 FoldK=F
 FoFJK:  IHMeth= 1 ICntrl=     0 DoSepK=T KAlg= 1 I1Cent= 0 FoldK=F
 FoFJK:  IHMeth= 1 ICntrl=     0 DoSepK=T KAlg= 1 I1Cent= 0 FoldK=F
 FoFJK:  IHMeth= 1 ICntrl=     0 DoSepK=T KAlg= 1 I1Cent= 0 FoldK=F
 FoFJK:  IHMeth= 1 ICntrl=     0 DoSepK=T KAlg= 1 I1Cent= 0 FoldK=F
 Gradient too large for Newton-Raphson -- use scaled steepest descent instead.
 FoFJK:  IHMeth= 1 ICntrl=     0 DoSepK=T KAlg= 1 I1Cent= 0 FoldK=F
 FoFJK:  IHMeth= 1 ICntrl=     0 DoSepK=T KAlg= 1 I1Cent= 0 FoldK=F
 FoFJK:  IHMeth= 1 ICntrl=     0 DoSepK=T KAlg= 1 I1Cent= 0 FoldK=F
 Gradient too large for Newton-Raphson -- use scaled steepest descent instead.
 FoFJK:  IHMeth= 1 ICntrl=     0 DoSepK=T KAlg= 1 I1Cent= 0 FoldK=F
 FoFJK:  IHMeth= 1 ICntrl=     0 DoSepK=T KAlg= 1 I1Cent= 0 FoldK=F
 FoFJK:  IHMeth= 1 ICntrl=     0 DoSepK=T KAlg= 1 I1Cent= 0 FoldK=F
 FoFJK:  IHMeth= 1 ICntrl=     0 DoSepK=T KAlg= 1 I1Cent= 0 FoldK=F
 LinEq1:  Iter=  0 NonCon=     1 RMS=2.73D-05 Max=1.30D-03
 AX will form     1 AO Fock derivatives at one time.
 FoFJK:  IHMeth= 1 ICntrl=     0 DoSepK=T KAlg= 1 I1Cent= 0 FoldK=F
 LinEq1:  Iter=  1 NonCon=     1 RMS=2.94D-05 Max=1.64D-03
 FoFJK:  IHMeth= 1 ICntrl=     0 DoSepK=T KAlg= 1 I1Cent= 0 FoldK=F
 LinEq1:  Iter=  2 NonCon=     1 RMS=1.60D-05 Max=8.99D-04
 FoFJK:  IHMeth= 1 ICntrl=     0 DoSepK=T KAlg= 1 I1Cent= 0 FoldK=F
 LinEq1:  Iter=  3 NonCon=     1 RMS=8.75D-06 Max=7.13D-04
 FoFJK:  IHMeth= 1 ICntrl=     0 DoSepK=T KAlg= 1 I1Cent= 0 FoldK=F
 LinEq1:  Iter=  4 NonCon=     1 RMS=4.06D-06 Max=1.63D-04
 FoFJK:  IHMeth= 1 ICntrl=     0 DoSepK=T KAlg= 1 I1Cent= 0 FoldK=F
 LinEq1:  Iter=  5 NonCon=     1 RMS=1.91D-06 Max=6.23D-05
 FoFJK:  IHMeth= 1 ICntrl=     0 DoSepK=T KAlg= 1 I1Cent= 0 FoldK=F
 LinEq1:  Iter=  6 NonCon=     1 RMS=1.28D-06 Max=4.97D-05
 FoFJK:  IHMeth= 1 ICntrl=     0 DoSepK=T KAlg= 1 I1Cent= 0 FoldK=F
 LinEq1:  Iter=  7 NonCon=     1 RMS=4.58D-07 Max=2.15D-05
 FoFJK:  IHMeth= 1 ICntrl=     0 DoSepK=T KAlg= 1 I1Cent= 0 FoldK=F
 LinEq1:  Iter=  8 NonCon=     1 RMS=2.16D-07 Max=7.38D-06
 FoFJK:  IHMeth= 1 ICntrl=     0 DoSepK=T KAlg= 1 I1Cent= 0 FoldK=F
 LinEq1:  Iter=  9 NonCon=     1 RMS=1.03D-07 Max=4.34D-06
 FoFJK:  IHMeth= 1 ICntrl=     0 DoSepK=T KAlg= 1 I1Cent= 0 FoldK=F
 LinEq1:  Iter= 10 NonCon=     1 RMS=4.34D-08 Max=2.11D-06
 FoFJK:  IHMeth= 1 ICntrl=     0 DoSepK=T KAlg= 1 I1Cent= 0 FoldK=F
 LinEq1:  Iter= 11 NonCon=     1 RMS=2.33D-08 Max=8.46D-07
 FoFJK:  IHMeth= 1 ICntrl=     0 DoSepK=T KAlg= 1 I1Cent= 0 FoldK=F
 LinEq1:  Iter= 12 NonCon=     1 RMS=9.50D-09 Max=3.39D-07
 FoFJK:  IHMeth= 1 ICntrl=     0 DoSepK=T KAlg= 1 I1Cent= 0 FoldK=F
 LinEq1:  Iter= 13 NonCon=     0 RMS=5.02D-09 Max=1.47D-07
 Linear equations converged to 1.853D-08 1.853D-07 after    13 iterations.
 FoFJK:  IHMeth= 1 ICntrl=     0 DoSepK=T KAlg= 1 I1Cent= 0 FoldK=F
 FoFJK:  IHMeth= 1 ICntrl=     0 DoSepK=T KAlg= 1 I1Cent= 0 FoldK=F
 FoFJK:  IHMeth= 1 ICntrl=     0 DoSepK=T KAlg= 1 I1Cent= 0 FoldK=F
 FoFJK:  IHMeth= 1 ICntrl=     0 DoSepK=T KAlg= 1 I1Cent= 0 FoldK=F
 LinEq1:  Iter=  0 NonCon=     1 RMS=4.11D-08 Max=2.64D-06
 FoFJK:  IHMeth= 1 ICntrl=     0 DoSepK=T KAlg= 1 I1Cent= 0 FoldK=F
 LinEq1:  Iter=  1 NonCon=     1 RMS=3.71D-08 Max=1.89D-06
 FoFJK:  IHMeth= 1 ICntrl=     0 DoSepK=T KAlg= 1 I1Cent= 0 FoldK=F
 LinEq1:  Iter=  2 NonCon=     1 RMS=1.76D-08 Max=9.83D-07
 FoFJK:  IHMeth= 1 ICntrl=     0 DoSepK=T KAlg= 1 I1Cent= 0 FoldK=F
 LinEq1:  Iter=  3 NonCon=     1 RMS=1.60D-08 Max=7.02D-07
 FoFJK:  IHMeth= 1 ICntrl=     0 DoSepK=T KAlg= 1 I1Cent= 0 FoldK=F
 LinEq1:  Iter=  4 NonCon=     1 RMS=8.24D-09 Max=2.51D-07
 FoFJK:  IHMeth= 1 ICntrl=     0 DoSepK=T KAlg= 1 I1Cent= 0 FoldK=F
 LinEq1:  Iter=  5 NonCon=     1 RMS=4.65D-09 Max=1.36D-07
 FoFJK:  IHMeth= 1 ICntrl=     0 DoSepK=T KAlg= 1 I1Cent= 0 FoldK=F
 LinEq1:  Iter=  6 NonCon=     1 RMS=2.19D-09 Max=7.39D-08
 FoFJK:  IHMeth= 1 ICntrl=     0 DoSepK=T KAlg= 1 I1Cent= 0 FoldK=F
 LinEq1:  Iter=  7 NonCon=     1 RMS=1.05D-09 Max=3.86D-08
 FoFJK:  IHMeth= 1 ICntrl=     0 DoSepK=T KAlg= 1 I1Cent= 0 FoldK=F
 LinEq1:  Iter=  8 NonCon=     1 RMS=4.88D-10 Max=2.21D-08
 FoFJK:  IHMeth= 1 ICntrl=     0 DoSepK=T KAlg= 1 I1Cent= 0 FoldK=F
 LinEq1:  Iter=  9 NonCon=     1 RMS=2.45D-10 Max=1.05D-08
 FoFJK:  IHMeth= 1 ICntrl=     0 DoSepK=T KAlg= 1 I1Cent= 0 FoldK=F
 LinEq1:  Iter= 10 NonCon=     1 RMS=9.72D-11 Max=2.96D-09
 FoFJK:  IHMeth= 1 ICntrl=     0 DoSepK=T KAlg= 1 I1Cent= 0 FoldK=F
 LinEq1:  Iter= 11 NonCon=     1 RMS=5.86D-11 Max=1.23D-09
 FoFJK:  IHMeth= 1 ICntrl=     0 DoSepK=T KAlg= 1 I1Cent= 0 FoldK=F
 LinEq1:  Iter= 12 NonCon=     1 RMS=2.44D-11 Max=8.09D-10
 FoFJK:  IHMeth= 1 ICntrl=     0 DoSepK=T KAlg= 1 I1Cent= 0 FoldK=F
 LinEq1:  Iter= 13 NonCon=     0 RMS=1.31D-11 Max=2.23D-10
 Linear equations converged to 4.997D-11 4.997D-10 after    13 iterations.
 FoFJK:  IHMeth= 1 ICntrl=     0 DoSepK=T KAlg= 1 I1Cent= 0 FoldK=F
 FoFJK:  IHMeth= 1 ICntrl=     0 DoSepK=T KAlg= 1 I1Cent= 0 FoldK=F
 FoFJK:  IHMeth= 1 ICntrl=     0 DoSepK=T KAlg= 1 I1Cent= 0 FoldK=F
 FoFJK:  IHMeth= 1 ICntrl=     0 DoSepK=T KAlg= 1 I1Cent= 0 FoldK=F
 LinEq1:  Iter=  0 NonCon=     1 RMS=1.97D-08 Max=1.26D-06
 FoFJK:  IHMeth= 1 ICntrl=     0 DoSepK=T KAlg= 1 I1Cent= 0 FoldK=F
 LinEq1:  Iter=  1 NonCon=     1 RMS=1.78D-08 Max=9.08D-07
 FoFJK:  IHMeth= 1 ICntrl=     0 DoSepK=T KAlg= 1 I1Cent= 0 FoldK=F
 LinEq1:  Iter=  2 NonCon=     1 RMS=8.46D-09 Max=4.71D-07
 FoFJK:  IHMeth= 1 ICntrl=     0 DoSepK=T KAlg= 1 I1Cent= 0 FoldK=F
 LinEq1:  Iter=  3 NonCon=     1 RMS=7.68D-09 Max=3.37D-07
 FoFJK:  IHMeth= 1 ICntrl=     0 DoSepK=T KAlg= 1 I1Cent= 0 FoldK=F
 LinEq1:  Iter=  4 NonCon=     1 RMS=3.95D-09 Max=1.20D-07
 FoFJK:  IHMeth= 1 ICntrl=     0 DoSepK=T KAlg= 1 I1Cent= 0 FoldK=F
 LinEq1:  Iter=  5 NonCon=     1 RMS=2.23D-09 Max=6.53D-08
 FoFJK:  IHMeth= 1 ICntrl=     0 DoSepK=T KAlg= 1 I1Cent= 0 FoldK=F
 LinEq1:  Iter=  6 NonCon=     1 RMS=1.05D-09 Max=3.54D-08
 FoFJK:  IHMeth= 1 ICntrl=     0 DoSepK=T KAlg= 1 I1Cent= 0 FoldK=F
 LinEq1:  Iter=  7 NonCon=     1 RMS=5.06D-10 Max=1.85D-08
 FoFJK:  IHMeth= 1 ICntrl=     0 DoSepK=T KAlg= 1 I1Cent= 0 FoldK=F
 LinEq1:  Iter=  8 NonCon=     1 RMS=2.34D-10 Max=1.06D-08
 FoFJK:  IHMeth= 1 ICntrl=     0 DoSepK=T KAlg= 1 I1Cent= 0 FoldK=F
 LinEq1:  Iter=  9 NonCon=     1 RMS=1.17D-10 Max=5.03D-09
 FoFJK:  IHMeth= 1 ICntrl=     0 DoSepK=T KAlg= 1 I1Cent= 0 FoldK=F
 LinEq1:  Iter= 10 NonCon=     1 RMS=4.67D-11 Max=1.42D-09
 FoFJK:  IHMeth= 1 ICntrl=     0 DoSepK=T KAlg= 1 I1Cent= 0 FoldK=F
 LinEq1:  Iter= 11 NonCon=     1 RMS=2.86D-11 Max=5.93D-10
 FoFJK:  IHMeth= 1 ICntrl=     0 DoSepK=T KAlg= 1 I1Cent= 0 FoldK=F
 LinEq1:  Iter= 12 NonCon=     1 RMS=1.31D-11 Max=3.94D-10
 FoFJK:  IHMeth= 1 ICntrl=     0 DoSepK=T KAlg= 1 I1Cent= 0 FoldK=F
 LinEq1:  Iter= 13 NonCon=     0 RMS=9.47D-12 Max=1.13D-10
 Linear equations converged to 2.396D-11 2.396D-10 after    13 iterations.
 FoFJK:  IHMeth= 1 ICntrl=     0 DoSepK=T KAlg= 1 I1Cent= 0 FoldK=F
 FoFJK:  IHMeth= 1 ICntrl=     0 DoSepK=T KAlg= 1 I1Cent= 0 FoldK=F
 FoFJK:  IHMeth= 1 ICntrl=     0 DoSepK=T KAlg= 1 I1Cent= 0 FoldK=F
 FoFJK:  IHMeth= 1 ICntrl=     0 DoSepK=T KAlg= 1 I1Cent= 0 FoldK=F
 FoFJK:  IHMeth= 1 ICntrl=     0 DoSepK=T KAlg= 1 I1Cent= 0 FoldK=F
 FoFJK:  IHMeth= 1 ICntrl=     0 DoSepK=T KAlg= 1 I1Cent= 0 FoldK=F
 LinEq1:  Iter=  0 NonCon=     1 RMS=1.56D-08 Max=9.97D-07
 FoFJK:  IHMeth= 1 ICntrl=     0 DoSepK=T KAlg= 1 I1Cent= 0 FoldK=F
 LinEq1:  Iter=  1 NonCon=     1 RMS=1.40D-08 Max=7.16D-07
 FoFJK:  IHMeth= 1 ICntrl=     0 DoSepK=T KAlg= 1 I1Cent= 0 FoldK=F
 LinEq1:  Iter=  2 NonCon=     1 RMS=6.68D-09 Max=3.72D-07
 FoFJK:  IHMeth= 1 ICntrl=     0 DoSepK=T KAlg= 1 I1Cent= 0 FoldK=F
 LinEq1:  Iter=  3 NonCon=     1 RMS=6.06D-09 Max=2.66D-07
 FoFJK:  IHMeth= 1 ICntrl=     0 DoSepK=T KAlg= 1 I1Cent= 0 FoldK=F
 LinEq1:  Iter=  4 NonCon=     1 RMS=3.12D-09 Max=9.49D-08
 FoFJK:  IHMeth= 1 ICntrl=     0 DoSepK=T KAlg= 1 I1Cent= 0 FoldK=F
 LinEq1:  Iter=  5 NonCon=     1 RMS=1.76D-09 Max=5.15D-08
 FoFJK:  IHMeth= 1 ICntrl=     0 DoSepK=T KAlg= 1 I1Cent= 0 FoldK=F
 LinEq1:  Iter=  6 NonCon=     1 RMS=8.28D-10 Max=2.79D-08
 FoFJK:  IHMeth= 1 ICntrl=     0 DoSepK=T KAlg= 1 I1Cent= 0 FoldK=F
 LinEq1:  Iter=  7 NonCon=     1 RMS=3.99D-10 Max=1.46D-08
 FoFJK:  IHMeth= 1 ICntrl=     0 DoSepK=T KAlg= 1 I1Cent= 0 FoldK=F
 LinEq1:  Iter=  8 NonCon=     1 RMS=1.85D-10 Max=8.37D-09
 FoFJK:  IHMeth= 1 ICntrl=     0 DoSepK=T KAlg= 1 I1Cent= 0 FoldK=F
 LinEq1:  Iter=  9 NonCon=     1 RMS=9.26D-11 Max=3.97D-09
 FoFJK:  IHMeth= 1 ICntrl=     0 DoSepK=T KAlg= 1 I1Cent= 0 FoldK=F
 LinEq1:  Iter= 10 NonCon=     1 RMS=3.70D-11 Max=1.12D-09
 FoFJK:  IHMeth= 1 ICntrl=     0 DoSepK=T KAlg= 1 I1Cent= 0 FoldK=F
 LinEq1:  Iter= 11 NonCon=     1 RMS=2.32D-11 Max=4.72D-10
 FoFJK:  IHMeth= 1 ICntrl=     0 DoSepK=T KAlg= 1 I1Cent= 0 FoldK=F
 LinEq1:  Iter= 12 NonCon=     1 RMS=1.13D-11 Max=3.16D-10
 FoFJK:  IHMeth= 1 ICntrl=     0 DoSepK=T KAlg= 1 I1Cent= 0 FoldK=F
 LinEq1:  Iter= 13 NonCon=     0 RMS=8.79D-12 Max=8.36D-11
 Linear equations converged to 1.891D-11 1.891D-10 after    13 iterations.
 FoFJK:  IHMeth= 1 ICntrl=     0 DoSepK=T KAlg= 1 I1Cent= 0 FoldK=F
 FoFJK:  IHMeth= 1 ICntrl=     0 DoSepK=T KAlg= 1 I1Cent= 0 FoldK=F
 FoFJK:  IHMeth= 1 ICntrl=     0 DoSepK=T KAlg= 1 I1Cent= 0 FoldK=F
 FoFJK:  IHMeth= 1 ICntrl=     0 DoSepK=T KAlg= 1 I1Cent= 0 FoldK=F
 FoFJK:  IHMeth= 1 ICntrl=     0 DoSepK=T KAlg= 1 I1Cent= 0 FoldK=F
 FoFJK:  IHMeth= 1 ICntrl=     0 DoSepK=T KAlg= 1 I1Cent= 0 FoldK=F
 FoFJK:  IHMeth= 1 ICntrl=     0 DoSepK=T KAlg= 1 I1Cent= 0 FoldK=F
 FoFJK:  IHMeth= 1 ICntrl=     0 DoSepK=T KAlg= 1 I1Cent= 0 FoldK=F
 FoFJK:  IHMeth= 1 ICntrl=     0 DoSepK=T KAlg= 1 I1Cent= 0 FoldK=F
 FoFJK:  IHMeth= 1 ICntrl=     0 DoSepK=T KAlg= 1 I1Cent= 0 FoldK=F
 FoFJK:  IHMeth= 1 ICntrl=     0 DoSepK=T KAlg= 1 I1Cent= 0 FoldK=F
 FoFJK:  IHMeth= 1 ICntrl=     0 DoSepK=T KAlg= 1 I1Cent= 0 FoldK=F
 FoFJK:  IHMeth= 1 ICntrl=     0 DoSepK=T KAlg= 1 I1Cent= 0 FoldK=F
 FoFJK:  IHMeth= 1 ICntrl=     0 DoSepK=T KAlg= 1 I1Cent= 0 FoldK=F
 FoFJK:  IHMeth= 1 ICntrl=     0 DoSepK=T KAlg= 1 I1Cent= 0 FoldK=F
 Search did not lower the energy significantly.
 No lower point found -- using Newton-Raphson step.
 FoFJK:  IHMeth= 1 ICntrl=     0 DoSepK=T KAlg= 1 I1Cent= 0 FoldK=F
 SCF Done:  E(RCAM-B3LYP) =  -567.313117707     a.u. after    8 cycles
            Convg  =    0.1545D-08                    97 Fock formations.
              S**2 =  0.0000                  -V/T =  2.0041
 Calling FoFJK, ICntrl=      2127 FMM=F ISym2X=0 I1Cent= 0 IOpClX= 0 NMat=1 NMatS=1 NMatT=0.
 FoFJK:  IHMeth= 1 ICntrl=  2127 DoSepK=T KAlg= 1 I1Cent= 0 FoldK=F
 ***** Axes restored to original set *****
 -------------------------------------------------------------------
 Center     Atomic                   Forces (Hartrees/Bohr)
 Number     Number              X              Y              Z
 -------------------------------------------------------------------
      1        6           0.008923197   -0.002676092   -0.007466305
      2        6           0.006529350    0.001543399    0.000308903
      3        6           0.000411802   -0.004018311    0.002127978
      4        6           0.004361227    0.003256775   -0.001532642
      5        6           0.007280834   -0.001799930    0.001925627
      6        6          -0.041427682    0.011726750   -0.000574440
      7        1          -0.004882522   -0.001044448   -0.000469332
      8        1          -0.000244201   -0.000433460    0.000885298
      9        1          -0.000463840    0.000398522    0.000938302
     10        7          -0.001665785    0.010091383   -0.000430262
     11        8           0.001560457   -0.005613386    0.012047269
     12        8           0.000307114   -0.005522331   -0.011868029
     13        7           0.000526801    0.002232398   -0.000758548
     14        1          -0.001462407    0.000374146    0.001245757
     15        1          -0.002697922    0.000104168   -0.000983280
     16        8           0.023713442   -0.006330109    0.006424112
     17        1          -0.000769864   -0.002289475   -0.001820408
 -------------------------------------------------------------------
 Cartesian Forces:  Max     0.041427682 RMS     0.008053755

 GradGradGradGradGradGradGradGradGradGradGradGradGradGradGradGradGradGrad
 Berny optimization.
 Using GEDIIS/GDIIS optimizer.
 Internal  Forces:  Max     0.013967381 RMS     0.004256609
 Search for a local minimum.
 Step number   2 out of a maximum of   86
 All quantities printed in internal units (Hartrees-Bohrs-Radians)
 Mixed Optimization -- RFO/linear search
 Update second derivatives using D2CorX and points    1    2
 DE= -1.12D-02 DEPred=-1.18D-02 R= 9.50D-01
 SS=  1.41D+00  RLast= 3.00D-01 DXNew= 5.0454D-01 8.9907D-01
 Trust test= 9.50D-01 RLast= 3.00D-01 DXMaxT set to 5.05D-01
 Use linear search instead of GDIIS.
 Linear search step of   0.599 exceeds DXMaxT=   0.505 but not scaled.
 Quartic linear search produced a step of  2.00000.
 Iteration  1 RMS(Cart)=  0.06875387 RMS(Int)=  0.01718903
 Iteration  2 RMS(Cart)=  0.02401570 RMS(Int)=  0.00548172
 Iteration  3 RMS(Cart)=  0.00083724 RMS(Int)=  0.00546369
 Iteration  4 RMS(Cart)=  0.00000701 RMS(Int)=  0.00546369
 Iteration  5 RMS(Cart)=  0.00000012 RMS(Int)=  0.00546369
 Variable       Old X    -DE/DX   Delta X   Delta X   Delta X     New X
                                 (Linear)    (Quad)   (Total)
    R1        2.62048  -0.00233  -0.01035   0.00000  -0.01036   2.61012
    R2        2.61591  -0.00352   0.00546   0.00000   0.00830   2.62421
    R3        2.04541  -0.00104  -0.00476   0.00000  -0.00476   2.04064
    R4        2.61470  -0.00256  -0.00596   0.00000  -0.00884   2.60586
    R5        2.75135  -0.00106  -0.00344   0.00000  -0.00344   2.74791
    R6        2.61444  -0.00531  -0.01469   0.00000  -0.01748   2.59696
    R7        2.04055  -0.00095  -0.00447   0.00000  -0.00447   2.03608
    R8        2.63392  -0.00131  -0.00498   0.00000  -0.00498   2.62894
    R9        2.04833  -0.00100  -0.00385   0.00000  -0.00385   2.04448
   R10        2.65620  -0.00080   0.00267   0.00000   0.00543   2.66164
   R11        2.60220  -0.00300  -0.00632   0.00000  -0.00632   2.59588
   R12        2.59314   0.00226   0.02727   0.00000   0.02727   2.62042
   R13        2.31300  -0.01337  -0.02044   0.00000  -0.02044   2.29256
   R14        2.31578  -0.01307  -0.02040   0.00000  -0.02040   2.29539
   R15        1.90427  -0.00168  -0.00490   0.00000  -0.00490   1.89938
   R16        1.90589  -0.00187  -0.00627   0.00000  -0.00627   1.89962
   R17        1.82483  -0.00287  -0.00739   0.00000  -0.00739   1.81744
    A1        2.07632   0.00264   0.01108   0.00000   0.01712   2.09343
    A2        2.08919  -0.00137  -0.00540   0.00000  -0.00890   2.08029
    A3        2.11753  -0.00127  -0.00596   0.00000  -0.00910   2.10843
    A4        2.12456  -0.00063  -0.00692   0.00000  -0.00632   2.11824
    A5        2.07191   0.00060   0.00704   0.00000   0.00672   2.07863
[...]
 ! D30   D(4,5,13,15)          167.6115         -DE/DX =    0.0                 !
 ! D31   D(6,5,13,14)         -164.2            -DE/DX =    0.0                 !
 ! D32   D(6,5,13,15)          -14.1577         -DE/DX =    0.0                 !
 ! D33   D(1,6,16,17)           -0.1166         -DE/DX =    0.0                 !
 ! D34   D(5,6,16,17)          179.562          -DE/DX =    0.0                 !
 --------------------------------------------------------------------------------
 GradGradGradGradGradGradGradGradGradGradGradGradGradGradGradGradGradGrad

 1\1\GINC-DLT20\Freq\RCAM-B3LYP\Gen\C6H6N2O3\MATHEUSMAXIMO\26-Nov-2022\
 0\\#N Geom=AllCheck Guess=TCheck SCRF=Check GenChk RCAM-B3LYP/ChkBas F
 req\\NA+OH CAM-B3LYP def2-TZVPD\\0,1\C,-0.4231843439,-0.2387529551,-0.
 0102407176\C,-0.5065827357,0.4290669118,-1.2246938652\C,-0.4465477698,
 -0.248479758,-2.4245554687\C,-0.3029524004,-1.6209851009,-2.4101927496
 \C,-0.2185557519,-2.3249962442,-1.2118480533\C,-0.2801882285,-1.601977
 695,-0.0077430638\H,-0.469681857,0.3256309468,0.9106854649\H,-0.512883
 6092,0.2998243648,-3.3512257881\H,-0.2591635261,-2.1669605573,-3.34369
 16525\N,-0.6573089751,1.8757692283,-1.2195277536\O,-0.7260650238,2.446
 3720543,-2.2900760625\O,-0.7062548495,2.4381116485,-0.1412304508\N,-0.
 1141396219,-3.6864920684,-1.1621841872\H,0.1682446619,-4.1795541455,-1
 .9896365418\H,0.1318223411,-4.1045481442,-0.2820606065\O,-0.1816549402
 ,-2.3490977628,1.1310739289\H,-0.22505996,-1.7859577131,1.9097947175\\
 Version=EM64L-G09RevA.02\State=1-A\HF=-567.326137\RMSD=0.000e+00\RMSF=
 5.192e-07\ZeroPoint=0.1252934\Thermal=0.134671\Dipole=0.4865581,-2.299
 6113,0.2894215\DipoleDeriv=-0.0832274,-0.047199,-0.019093,-0.03922,0.3
 698058,0.173993,0.0341011,-0.325499,-0.0796162,-0.0204399,0.1101749,0.
 0046221,0.1007972,-1.0440749,-0.0598903,-0.006362,0.0753348,-0.0209799
 ,-0.0566858,-0.0389448,-0.0088852,-0.0420944,0.3701782,0.098317,-0.022
 6792,0.2054667,-0.027579,-0.1902958,0.0392058,0.0070944,0.0254389,-0.4
 761187,0.001,-0.0364485,0.4915865,0.0605727,0.1128305,-0.1242162,0.010
 949,-0.1638464,2.0164951,-0.1037958,-0.0129168,0.1050222,-0.0893633,0.
 0373636,0.0339501,0.0718493,0.013475,-0.2601708,-0.5363822,0.1205796,-
 1.0945021,1.05068,0.1464505,-0.0021711,0.0014429,0.0007958,0.1366533,-
 0.0270198,-0.0019,-0.0022224,0.0189402,0.1387373,0.0036314,-0.003344,0
 .0037034,0.1099978,0.0302588,-0.0025845,0.0203888,0.0643383,0.136682,0
 .0111156,0.0045481,0.0153289,-0.0004063,-0.0678973,0.0063829,-0.068961
 8,-0.0147149,0.2732973,-0.2272194,0.0133358,-0.2229805,2.4228495,-0.00
 45841,0.010866,0.0138254,1.6432706,-0.2608188,0.0807259,-0.0490714,0.0
 804636,-0.9936073,0.4118303,-0.0515704,0.444974,-0.9622891,-0.2656809,
 0.0701059,0.0337737,0.0699102,-0.9658276,-0.3890972,0.037002,-0.42781,
 -0.9821398,-0.4619086,-0.2308198,-0.0166263,0.073511,-1.8836939,0.0467
 958,-0.0113886,0.0378089,-0.1664652,0.2639299,0.1531523,0.0292054,0.02
 47204,0.2445721,0.0533167,0.0168464,0.0995929,0.1392256,0.2599374,0.13
 28808,-0.0223524,0.0217035,0.2385873,-0.0445508,-0.0120508,-0.1067327,
 0.1985201,-0.3503525,0.0197266,-0.0660076,0.0248472,-0.4640433,0.49635
 42,-0.0743812,0.5934515,-1.2211275,0.3201812,0.015901,0.008559,0.01344
 61,0.1788035,-0.0786482,0.0065039,-0.0617237,0.3887274\Polar=57.521880
 1,-10.0373787,154.0540141,0.8099719,-2.8940697,110.0574724\PG=C01 [X(C
 6H6N2O3)]\NImag=0\\0.13997708,-0.06222000,0.73360355,0.00458935,0.0300
 3362,0.74344457,-0.06253537,0.00935241,-0.01393502,0.14388786,0.010123
 15,-0.14662543,0.10842035,-0.04586342,0.57605165,-0.00802066,0.0505994
 6,-0.29323245,0.00571856,0.00636914,0.77424500,0.01064244,-0.00419337,
 0.00181277,-0.06759084,0.00783592,0.00338677,0.14973422,-0.00460847,0.
 05230034,-0.02429440,0.00829323,-0.15073899,-0.05315898,-0.05991308,0.
 71263272,-0.00315811,0.02314939,-0.06048864,0.00963269,-0.11295342,-0.
 30486922,0.00989267,-0.03904993,0.75149479,-0.00299354,0.00481610,-0.0
 0373101,0.00822474,0.00531722,0.00888468,-0.06485089,0.02971658,-0.004
 83150,0.13618033,0.00449457,-0.04240675,0.03281084,0.00480042,-0.04408
 256,-0.07730651,0.03117876,-0.35638952,0.03544896,-0.06010361,0.727407
 02,-0.00165003,0.01465088,-0.01681431,0.00204767,-0.01734922,0.0306019
 6,0.00289865,-0.03381786,-0.13207307,0.00253706,0.03627308,0.71425124,
 0.00401290,0.00261950,0.00289118,-0.00429097,-0.00107754,-0.00051338,0
 .00220960,0.00382391,-0.00267399,-0.06984697,0.01111963,-0.01403279,0.
 17393769,0.00482911,-0.04009597,-0.02406587,-0.00281797,0.02078101,-0.
 00694574,0.00426672,-0.02966795,0.03545830,0.01273807,-0.17016052,0.10
 252690,-0.06634046,0.74632358,0.00799211,-0.07092976,0.04518811,-0.000
 12997,-0.00553230,-0.07553925,-0.00872632,0.08449024,0.04173062,-0.005
 37149,0.03580633,-0.28700001,0.00712569,-0.02375885,0.71964062,-0.0670
 7882,0.03106992,0.00447625,0.00298506,0.00533834,-0.00828114,-0.002881
 89,0.00409082,0.00384115,0.00521661,-0.00585227,0.00031656,-0.08009567
 ,0.00633884,0.00184417,0.15751860,0.03061196,-0.36410948,-0.05196565,0
 .00567249,-0.04138407,0.07958562,0.00389586,-0.04341216,-0.03670510,-0
 .00654911,0.06183596,-0.00944291,0.00849583,-0.14861178,-0.03642088,-0
 .06364762,0.76036501,-0.00459192,0.03231551,-0.14387594,-0.00164371,0.
 02033466,0.04551185,0.00338517,-0.03376178,-0.02052104,-0.00385946,0.0
 2817438,-0.05059283,0.01152263,-0.11533938,-0.23251984,0.00808947,-0.0
 0059527,0.68124498,-0.03764880,0.00856280,0.01002914,0.00427142,-0.001
 31444,-0.00123500,0.00419742,0.00059762,-0.00052352,-0.00109719,0.0000
 3409,-0.00003337,0.00671463,0.00116511,-0.00016765,0.00624392,0.001708
 60,0.00265142,0.02560534,0.00840022,-0.13363706,-0.12685417,-0.0008487
 4,0.01371560,0.01038139,0.00058662,-0.00108971,0.00386615,0.00003230,-
 0.00123239,0.00097905,0.00116390,-0.00450706,0.00082832,0.00131912,-0.
 01019615,-0.02632485,-0.00993489,0.13781992,0.00989017,-0.12477300,-0.
 26839868,0.00139227,-0.01623043,-0.01878862,-0.00053456,0.00415674,-0.
 00322987,-0.00004050,0.00051594,0.00052544,-0.00019028,0.00132679,0.00
 072302,-0.00033106,0.00287870,0.00297421,-0.01092850,0.13768701,0.2824
 1785,0.00485296,0.00064041,0.00027178,0.00528870,-0.00071659,0.0010573
 3,-0.04033638,0.01080407,-0.01556233,0.00415502,0.00140132,-0.00275599
 ,0.00728285,0.00117396,0.00002964,-0.00110015,0.00003326,0.00007893,0.
 00085635,0.00001920,0.00007734,0.02852236,0.00062572,-0.00140919,-0.00
 340147,-0.00096267,0.01326007,-0.01213395,0.01080400,-0.13012337,0.126
 79148,0.00170677,-0.00956897,0.02615667,0.00118650,-0.00452547,-0.0009
 3883,0.00001481,-0.00124094,-0.00070085,0.00000432,0.00069288,-0.00086
 547,-0.01262630,0.13478388,0.00032865,-0.00386431,-0.00287195,-0.00183
 574,0.01527691,-0.01915717,-0.01534674,0.12484587,-0.27921652,0.000258
 27,-0.00226104,0.00631160,0.00005823,-0.00141577,0.00122802,0.00006475
 ,-0.00051791,0.00004105,-0.00009916,0.00078545,-0.00085870,0.01683494,
 -0.13665872,0.29190270,-0.00103036,-0.00007009,-0.00009087,0.00652842,
 0.00123318,-0.00027559,0.00262802,0.00168046,0.00312277,-0.03586768,0.
 00782732,0.00906730,0.00483671,-0.00077452,-0.00169397,0.00609507,0.00
 081830,-0.00027283,-0.00015314,-0.00001253,0.00001131,-0.00457332,-0.0
 0062019,0.00001788,0.02491306,-0.00002631,-0.00067750,0.00085107,0.001
 19398,-0.00479762,0.00154890,0.00115907,-0.01193891,-0.02889501,0.0082
 1553,-0.12918331,-0.12054716,-0.00043165,0.01026872,0.01463636,0.00078
 090,-0.00143744,0.00246251,-0.00001200,0.00000110,-0.00007335,-0.00057
 729,0.00122552,0.00034267,-0.00982730,0.13470974,-0.00011909,0.0011238
 3,-0.00028685,-0.00014625,0.00064274,0.00200276,-0.00009383,0.00133116
 ,0.00452048,0.00918257,-0.12002866,-0.27027600,0.00150111,-0.01713792,
 -0.01989613,-0.00041260,0.00342343,-0.00195735,0.00000016,-0.00002603,
 -0.00001713,0.00011027,-0.00028373,0.00068187,-0.00985437,0.13065613,0
 .28486124,-0.00355446,0.00426856,-0.00188072,-0.08390037,0.00502900,-0
 .00064518,-0.00355264,0.00395941,0.00244112,0.00803641,-0.00076292,0.0
 0098848,-0.00161136,0.00189845,-0.00011735,0.00629624,-0.00067049,-0.0
 0164678,-0.00399599,-0.00052296,0.00035232,-0.00478629,-0.00061507,-0.
 00029222,0.00130447,0.00008119,-0.00007925,0.25632676,0.00423168,-0.04
 159983,0.02031315,0.00508509,-0.13211374,0.00262879,0.00395944,-0.0432
 6009,-0.02138558,-0.00079373,0.01428859,-0.01083076,0.00065257,-0.0198
 1947,0.00065789,-0.00091915,0.01418144,0.01482477,-0.00051429,0.001139
 63,-0.00308349,-0.00058141,0.00096232,0.00292986,0.00011694,0.00037900
 ,0.00042906,-0.04485753,0.68196176,-0.00258164,0.02648087,0.01176575,-
 0.00022662,-0.00055995,-0.11262712,0.00283508,-0.02553653,0.01436325,0
 .00052906,-0.00593423,-0.00712788,-0.00001472,-0.00077958,-0.00556823,
 -0.00060427,0.00413006,-0.00405074,-0.00007415,0.00085969,-0.00306088,
 0.00006898,-0.00054569,-0.00328109,0.00017453,-0.00173842,0.00026474,0
 .00697823,-0.00518923,0.97636146,0.00335404,0.00070712,0.00071038,0.01
 992742,0.00683351,-0.00561538,0.00116627,0.00014083,-0.00038110,-0.000
 58256,0.00015343,-0.00026576,0.00028413,-0.00057938,-0.00019560,-0.000
 58623,0.00030613,0.00030043,0.00043736,-0.00002486,-0.00000739,-0.0000
 9817,0.00042228,-0.00005291,-0.00005092,0.00001450,0.00002126,-0.08620
 002,0.01875823,-0.02227631,0.03408388,0.00061786,-0.00331803,-0.007098
 48,0.00697332,-0.04174241,0.05136337,0.00026493,-0.00099559,0.00285859
 ,0.00014065,-0.00167186,0.00262105,-0.00016744,0.00526747,0.00189351,0
 .00036395,-0.00351720,-0.00261722,-0.00002425,0.00049460,0.00010546,0.
 00043312,-0.00410993,0.00079305,0.00000598,-0.00018514,-0.00017246,0.0
 1875918,-0.24891304,0.18429590,-0.02525330,0.25474178,0.00008118,-0.00
 075610,0.00332607,-0.00434722,0.03889402,-0.01168806,0.00105042,-0.010
 93949,-0.00777597,-0.00046462,0.00424917,-0.00020690,0.00022109,-0.004
 75212,0.00050812,-0.00031156,0.00269524,0.00277647,0.00019613,-0.00156
 473,0.00116769,0.00005781,-0.00024783,0.00329750,-0.00001852,0.0002439
 2,0.00000945,-0.02188725,0.18094751,-0.43367909,0.02820540,-0.22488930
 ,0.57496567,0.00123447,0.00044107,0.00016714,0.02061220,0.00610547,0.0
 0517287,0.00353347,0.00066613,-0.00082090,-0.00118368,0.00035909,0.000
 02430,0.00025522,-0.00044723,0.00020194,-0.00047745,0.00001379,0.00043
 308,-0.00033103,0.00044210,0.00011368,0.00044731,0.00000878,0.00001412
 ,-0.00059244,0.00003408,0.00001463,-0.08552588,0.01520884,0.01562473,0
 .02902771,-0.00235117,-0.00276182,0.03310792,0.00033885,-0.00188217,-0
 .00255990,0.00596196,-0.04042461,-0.05270810,0.00074812,-0.00269332,0.
 00784749,0.00039496,-0.00468469,0.00005882,-0.00020675,0.00480813,-0.0
 0191808,0.00005951,-0.00113545,-0.00423988,0.00043265,-0.00450751,-0.0
 0068812,-0.00000530,0.00050729,-0.00005022,0.00003607,-0.00093697,-0.0
 0001055,0.01517781,-0.24542894,-0.17954693,-0.00214001,0.05059745,0.01
 255540,-0.02097965,0.25097541,-0.00122250,0.01069748,-0.00690743,0.003
 66290,-0.03801475,-0.01437096,-0.00011759,0.00114494,0.00381614,0.0003
 0946,-0.00264005,0.00271610,-0.00025170,0.00519626,0.00002779,0.000506
 44,-0.00423315,-0.00201608,0.00001624,0.00001669,0.00323670,-0.0001428
 0,0.00146341,0.00129637,0.00004092,-0.00025864,-0.00003655,0.01532369,
 -0.17700167,-0.43089618,-0.00025784,-0.01112022,-0.13286888,-0.0180351
 2,0.21949763,0.57347722,0.00370826,0.00284485,0.00019697,-0.00030852,-
 0.00266548,0.00083264,0.00482193,0.00142922,-0.00091502,0.00868688,0.0
 0337790,0.00178999,-0.04521955,0.05285813,-0.00066156,0.00998764,0.001
 12801,-0.00056733,-0.00048128,0.00011567,-0.00006298,-0.00004538,0.000
 13263,0.00001761,-0.00311567,-0.00073079,0.00030420,-0.00060972,0.0021
 5095,0.00008873,0.00003452,-0.00057580,0.00050506,0.00006960,-0.000498
 60,-0.00053165,0.09815387,-0.00134618,0.01672306,-0.00404799,0.0022989
 0,-0.02106645,0.00365132,-0.00053272,0.01076089,-0.00021693,0.00397266
 ,-0.04192085,0.02022625,0.01975626,-0.33682936,0.00441339,0.00644519,-
 0.05873346,-0.01322614,-0.00007373,-0.00037659,0.00004861,0.00002296,-
 0.00030950,-0.00000954,-0.00073537,0.00195681,-0.00089892,-0.00197680,
 0.01837066,0.00052482,0.00057721,-0.00520204,0.00398392,0.00048905,-0.
 00491758,-0.00419392,-0.18248884,0.69513822,-0.00055883,0.00253952,-0.
 00948543,-0.00011841,0.00171872,0.00511868,0.00113583,-0.00533765,-0.0
 0889114,-0.00384342,0.04929792,0.00283749,0.00039837,0.00862686,-0.133
 47576,0.00282195,-0.04228723,-0.00127132,0.00019008,-0.00122816,0.0002
 9338,-0.00019714,0.00131172,0.00020477,-0.00056775,0.00011293,0.002205
 10,-0.00010541,-0.00096641,-0.00014879,0.00004414,0.00003008,0.0002837
 6,-0.00000019,0.00045182,0.00081353,-0.00882589,0.00827508,0.84982985,
 0.00127356,-0.00157885,0.00017697,0.00004273,0.00153491,-0.00069281,-0
 .00067501,-0.00041313,0.00015305,-0.00111395,0.00060667,-0.00081486,-0
 .00410632,-0.00885759,-0.00040661,0.00270887,0.00221326,0.00038588,-0.
 00039795,-0.00009616,0.00001954,0.00007819,0.00001432,0.00000038,0.000
 32579,0.00030215,-0.00038879,0.00028558,-0.00131442,-0.00007695,-0.000
 11454,0.00035923,-0.00029818,-0.00006058,0.00030018,0.00030161,-0.0403
 0095,0.08598319,0.11109925,0.04259864,-0.00016478,-0.00039257,-0.00173
 742,-0.00002382,0.00090222,0.00025159,-0.00049098,-0.00077895,-0.00006
 783,-0.00120717,0.00284484,-0.00180027,0.01006853,-0.01812392,-0.03327
 205,0.00125484,-0.00488382,0.00364695,-0.00001458,-0.00036713,0.000078
 07,0.00004114,0.00003361,0.00000829,0.00047519,-0.00005995,0.00133381,
 0.00016538,-0.00074631,-0.00002816,-0.00003687,0.00021029,-0.00009780,
 -0.00003816,0.00026037,0.00028953,0.06778770,-0.15283732,-0.14999846,-
 0.07053691,0.16196828,0.00028690,-0.00135424,0.00042258,-0.00022961,0.
 00184935,-0.00012389,-0.00042980,-0.00116651,-0.00046551,-0.00071524,0
 .00302393,0.00118328,-0.00103083,-0.00177539,0.00647433,0.00013169,0.0
 0426768,0.00043977,-0.00002622,0.00006963,0.00006137,0.00002831,0.0000
 7619,-0.00000164,0.00049197,-0.00037608,-0.00050625,0.00031620,-0.0015
 9943,-0.00001668,-0.00007152,0.00044560,-0.00042187,-0.00007147,0.0003
 7510,0.00032444,0.09111332,-0.15391849,-0.34186325,-0.10088089,0.16814
 222,0.34947575,-0.00025181,-0.00109415,0.00019781,-0.00019103,0.001374
 09,-0.00010458,0.00203622,-0.00071479,0.00003434,0.00221081,0.00097987
 ,-0.00074294,-0.00462488,-0.00703493,0.00078008,-0.00008642,0.00270319
 ,-0.00087723,0.00020398,0.00005319,0.00002525,-0.00019309,-0.00003315,
 0.00001032,-0.00071700,-0.00008025,-0.00007869,-0.00006657,-0.00118744
 ,-0.00002872,-0.00001254,0.00030056,-0.00024706,-0.00003037,0.00029839
 ,0.00028805,-0.03238752,0.06886456,-0.10229327,-0.00059846,-0.00740180
 ,0.01100948,0.03616943,-0.00025495,0.00006480,0.00029902,-0.00003155,0
 .00031148,-0.00017433,0.00004693,0.00000058,0.00164110,0.00108861,-0.0
 0522890,-0.00287239,0.00886850,-0.01389438,0.03472716,-0.00006406,-0.0
 0156336,0.00332100,0.00009423,-0.00001212,-0.00007647,-0.00000033,-0.0
 0037179,-0.00008130,-0.00004030,0.00009620,0.00010939,-0.00000176,-0.0
 0044708,0.00009423,-0.00000795,0.00019690,-0.00024036,-0.00000588,0.00
 012134,-0.00002249,0.05372283,-0.12951134,0.13316760,-0.00743263,0.010
 92424,-0.01654903,-0.05542471,0.13742671,-0.00032894,0.00194311,-0.000
 95840,0.00026994,-0.00216624,0.00007036,-0.00016672,0.00136334,0.00031
 554,-0.00031935,-0.00322409,0.00209747,-0.00049036,0.00705069,0.004541
 89,0.00120634,-0.00467218,0.00187729,-0.00004651,-0.00017297,0.0000003
 4,0.00005965,-0.00006939,0.00002977,-0.00004882,-0.00006986,0.00015090
 ,-0.00015311,0.00192728,0.00010809,0.00002669,-0.00044388,0.00034326,0
 .00004988,-0.00052490,-0.00055783,-0.08280870,0.13839667,-0.37113804,-
 0.00855252,0.01241051,-0.01511283,0.09131295,-0.15238257,0.38125515,0.
 00622188,0.00415611,-0.00565602,0.00763845,0.00087636,0.00045281,-0.00
 127292,0.00031044,-0.00031206,0.00383283,0.00050374,0.00058920,0.00835
 327,0.00071270,0.00011933,-0.04230777,0.01540391,-0.01027967,-0.004895
 42,-0.00091783,0.00010623,-0.00031626,-0.00006941,0.00000673,-0.000271
 33,-0.00008144,0.00006609,0.00168034,0.00003944,-0.00031903,-0.0007305
 5,0.00015642,-0.00002152,0.00000518,0.00010146,0.00004580,-0.00297214,
 -0.00119812,0.00039716,-0.00004557,0.00014881,0.00000191,-0.00119060,-
 0.00020944,0.00028678,0.03081640,0.00456651,-0.02894709,0.05022089,0.0
 0086262,-0.00102189,-0.00484561,0.00027306,-0.00381370,0.00261507,0.00
 057945,-0.00135179,-0.00652362,-0.00018212,0.00231448,-0.01005815,0.01
 461698,-0.16957908,0.06739955,-0.00087748,0.00336718,0.00009884,-0.000
 06744,0.00027472,-0.00000840,-0.00008410,0.00065780,-0.00073149,0.0001
 0785,0.00075318,0.00252906,0.00012894,-0.00188669,0.00026937,0.0000738
 3,-0.00069426,-0.00022356,0.00119001,0.00897263,-0.00457150,-0.0009884
 9,0.00079924,-0.00134086,-0.00119411,0.00088818,0.00027918,-0.03779036
 ,0.40839543,-0.00122542,0.01017452,-0.00570029,-0.00016965,-0.00037797
 ,-0.00651316,-0.00101762,0.01005468,0.00054431,0.00137660,-0.01295734,
 0.00468945,-0.00395163,0.03201633,-0.06350994,-0.01501366,0.11210287,-
 0.24067536,0.00021953,-0.00072790,0.00268638,-0.00000954,-0.00002429,0
 .00036297,-0.00007787,0.00081711,-0.00149209,0.00049295,-0.00548913,-0
 .00280227,-0.00024404,0.00252178,-0.00019915,-0.00017923,0.00195886,0.
 00210089,-0.00050717,-0.00486673,0.00393513,0.00001700,0.00099046,0.00
 006780,0.00068363,-0.00052099,-0.00289843,-0.00011272,0.10965296,0.651
 76950,-0.00018443,-0.00032240,-0.00022610,-0.00058990,0.00003633,-0.00
 012191,0.00019098,0.00013673,0.00006076,0.00099283,-0.00011801,0.00003
 655,0.00190872,0.00087100,-0.00062243,-0.00243760,-0.00213738,-0.00310
 807,0.00047037,0.00022565,0.00010716,-0.00003472,0.00000667,0.00001489
 ,-0.00025969,-0.00001438,-0.00002741,-0.00012651,-0.00003522,-0.000096
 92,0.00006020,-0.00000324,0.00004066,-0.00009166,-0.00001966,0.0000640
 8,-0.00002196,-0.00005822,0.00042353,0.00009997,-0.00002653,0.00007579
 ,-0.00027016,-0.00034755,-0.00029721,-0.00454578,0.01878487,0.01971883
 ,0.00483935,-0.00021896,0.00240932,0.00307640,0.00005376,-0.00102428,0
 .00089363,0.00011072,-0.00079226,-0.00040272,-0.00006526,0.00150568,-0
 .00030853,0.00065081,-0.00352751,0.00537570,-0.00121012,0.01342198,0.0
 2432603,0.00016624,-0.00130519,-0.00110584,0.00000522,-0.00008114,-0.0
 0011488,-0.00002903,-0.00007807,0.00024023,-0.00003930,0.00029191,0.00
 094409,0.00000018,0.00003342,-0.00035084,-0.00002014,0.00003553,-0.000
 59749,0.00022160,-0.00021779,-0.00114285,-0.00009571,0.00024687,-0.000
 16967,-0.00040853,0.00099855,0.00035529,0.01785721,-0.21912835,-0.2553
 2522,-0.01697867,0.20721131,0.00028880,-0.00203080,0.00487330,0.000058
 16,-0.00032160,-0.00064071,0.00003582,-0.00032386,0.00074584,0.0000988
 9,-0.00124863,-0.00112304,-0.00056859,0.00376849,-0.00255336,0.0016555
 0,-0.02224332,-0.03738512,-0.00016861,0.00142544,0.00026750,-0.0000071
 9,0.00007074,0.00003046,-0.00002608,0.00028691,-0.00022819,-0.00008571
 ,0.00088738,0.00039565,0.00005954,-0.00058683,0.00016191,0.00005237,-0
 .00049845,-0.00015527,0.00003179,0.00185861,0.00075204,-0.00004208,-0.
 00014944,0.00006257,0.00003058,-0.00043957,-0.00012450,0.01462898,-0.2
 0476175,-0.34236576,-0.01604219,0.22430666,0.37728667\\-0.00000007,-0.
 00000074,0.00000036,-0.00000005,0.00000054,-0.00000098,-0.00000008,0.0
 0000095,0.00000081,-0.00000003,-0.00000120,0.00000074,-0.00000018,-0.0
 0000027,-0.00000172,0.00000035,0.00000113,0.00000133,-0.00000004,-0.00
 000013,0.00000004,0.00000007,-0.00000007,-0.00000006,0.,0.00000025,-0.
 00000012,0.00000003,-0.00000066,-0.00000049,0.00000002,-0.00000016,0.0
 0000008,-0.00000027,0.00000022,0.00000076,0.00000027,0.00000024,-0.000
 00033,0.00000029,-0.00000011,0.00000001,-0.00000015,0.00000012,-0.0000
 0004,-0.00000010,0.,-0.00000029,-0.00000004,-0.00000011,-0.00000010\\\
 @


 FROM THE ASHES OF OUR DESPAIR GROW THE FLOWERS OF TOMORROW.
 Job cpu time:  0 days  4 hours 34 minutes 32.1 seconds.
 File lengths (MBytes):  RWF=    289 Int=      0 D2E=      0 Chk=     14 Scr=      1
 Normal termination of Gaussian 09 at Sat Nov 26 21:55:07 2022.
