 hostname is         dlt19.abaxnet
 this is node-proc. number 0 running on node dlt19.abaxnet
 the total number of node-proc. spawned is   1

 ricc2 (dlt19.abaxnet) : TURBOMOLE V6.6( 19125 ) 27 May 2014 at 14:24:19
 Copyright (C) 2014 TURBOMOLE GmbH, Karlsruhe


    2023-02-15 18:13:24.758 



                              R I C C 2 - PROGRAM

                          the quantum chemistry groups
                             at the universities in
                           Karlsruhe, Bochum & Mainz
                                   Germany



   *-----------------------------------------------------------------------*
   |                     program will use  1 thread(s)                     |
   *-----------------------------------------------------------------------*


              +--------------------------------------------------+
              | Atomic coordinate, charge and isotop information |
              +--------------------------------------------------+

                    atomic coordinates            atom    charge  isotop
         -0.96224396   -2.04279761   -0.00510239    c      6.000     0
         -3.14616218   -0.62357224   -0.01803993    c      6.000     0
         -3.05346985    1.99362764   -0.03350086    c      6.000     0
         -0.75282921    3.18404287   -0.03091847    c      6.000     0
          1.51201397    1.80580273   -0.01364913    c      6.000     0
          1.35726858   -0.85272712   -0.00522636    c      6.000     0
         -1.08958922   -4.07730151    0.00414521    h      1.000     0
         -4.79399881    3.05765782   -0.04359551    h      1.000     0
         -0.66424915    5.22710741   -0.04227869    h      1.000     0
         -5.58481067   -1.89883410   -0.01508130    n      7.000     0
         -7.47118207   -0.58976450   -0.02910813    o      8.000     0
         -5.59605420   -4.19368925    0.00139588    o      8.000     0
          3.75294090    3.05331481   -0.05107463    n      7.000     0
          3.76325518    4.93830104    0.15159330    h      1.000     0
          5.39179689    2.15070470    0.25499195    h      1.000     0
          3.71844253   -2.40947641   -0.02861648    c      6.000     0
          5.09460668   -2.02290456   -2.13626190    f      9.000     0
          5.26408092   -1.81957115    1.92211001    f      9.000     0
          3.26018366   -4.87992060    0.11821743    f      9.000     0
 
       center of nuclear mass  :    0.05190925   -0.98006618   -0.02176982
       center of nuclear charge:   -0.00140195   -0.87559580   -0.01955447

              +--------------------------------------------------+
              |               basis set information              |
              +--------------------------------------------------+

              we will work with the 1s 3p 5d 7f 9g ... basis set
              ...i.e. with spherical basis functions...

   type   atoms  prim   cont   basis
   ---------------------------------------------------------------------------
    c        7     52     37   def2-TZVPD   [6s3p3d1f|12s6p3d1f]
    h        5     11      9   def2-TZVPD   [3s2p|5s2p]
    n        2     52     37   def2-TZVPD   [6s3p3d1f|12s6p3d1f]
    o        2     55     40   def2-TZVPD   [6s4p3d1f|12s7p3d1f]
    f        3     55     40   def2-TZVPD   [6s4p3d1f|12s7p3d1f]
   ---------------------------------------------------------------------------
   total:   19    798    578
   ---------------------------------------------------------------------------

   total number of primitive shells          :   97
   total number of contracted shells         :  212
   total number of cartesian basis functions :  662
   total number of SCF-basis functions       :  578



   =========================================================================


     restricted closed shell calculation for the wavefunction models:
               ADC(2)     - Algebraic Diagrammatic Construction to 2. Order (strict)


     global parameters for ricc2 program:

        hard restart (reuse of interm.) :  disabled
        soft restart (reuse of vectors) :  disabled
        threshold for vector function   :    0.100000E-06
        convergence threshold energy    :    0.100000E-07
        linear dependence threshold     :    0.100000E-13
        global print level              :      1
        maximum number of iterations    :   500
        maximum number DIIS vectors     :    10
        max. dim. of reduced space      :   100
        core memory limit (MB)          :   500
        disk space limit (MB)           :   none


   =========================================================================
     "cartesian on" in $drvopt is ignored by $ricc2

    der. integral neglect threshold  :  0.10E-08
    integral neglect threshold       :  0.50E-12
    integral storage threshold THIZE :  0.10E-04
    integral storage threshold THIME :         5


                  +------------------------------------------+
                  |     Auxiliary basis set information      |
                  +------------------------------------------+

              we will work with the 1s 3p 5d 7f 9g ... basis set
              ...i.e. with spherical basis functions...

   type   atoms  prim   cont   basis
   ---------------------------------------------------------------------------
    c        7     97     92   def2-TZVPD   [9s7p5d4f1g|9s7p6d4f1g]
    h        5     32     24   def2-TZVPD   [5s3p2d|5s4p3d]
    n        2     97     92   def2-TZVPD   [9s7p5d4f1g|9s7p6d4f1g]
    o        2     97     92   def2-TZVPD   [9s7p5d4f1g|9s7p6d4f1g]
    f        3     97     92   def2-TZVPD   [9s7p5d4f1g|9s7p6d4f1g]
   ---------------------------------------------------------------------------
   total:   19   1518   1408
   ---------------------------------------------------------------------------

   total number of primitive shells          :  120
   total number of contracted shells         :  414
   total number of cartesian basis functions : 1740
   total number of SCF-basis functions       : 1408


 symmetry group of the molecule :   c1 

 the group has the following generators :
   c1(z)

    1 symmetry operations found

 there are 1 real representations :   a   

 maximum number of shells which are related by symmetry :  1


 The symmetry information takes   1 MB

*---------------------------------------------------------------------*
|               simplified C1 algorithm will be applied               |
*---------------------------------------------------------------------*
  MOs are in ASCII format !


 reading orbital data $scfmo  from file mos . 

 orbital characterization : scfconv=7
 

         --------------------------------------------------------------
                   checking mo's by calculating trace(D*S)

              number of electrons : 
                 from trace(D*S)         :  104.000000000003
                 from occupation numbers :  104.000000000000

              molecular charge           :    0.000000000000
         --------------------------------------------------------------

 time elapsed for calculating density matrices :   0.018 sec
 all orbitals will be active in the correlation treatment


   Molecular Orbital Statistic:
   ============================

   -----------------------------
   orbitals in total:
   -----------------------------
    frozen occupied :      0
    active occupied :     52
    active virtual  :    526
    frozen virtual  :      0
    all together    :    578
   -----------------------------


     time in riccmos       cpu:  0.20 sec    wall:  2.83 sec    ratio:  0.1

     total memory allocated for calculation of (Q|P)**(-1/2) : 23 MiB


     calculation of (P|Q) ...
     time in lp2sym        cpu:  0.03 sec    wall:  0.03 sec    ratio:  1.0


     calculation of the Cholesky decomposition of (P|Q)**(-1) ...
     time in invmetri      cpu:  0.14 sec    wall:  1.71 sec    ratio:  0.1

   threshold for RMS(d[D]) in SCF was     :  0.10E-07
   integral neglect threshold             :  0.50E-12
   derivative integral neglect threshold  :  0.10E-08


 setting up bound for integral derivative estimation

 increment for numerical differentiation : 0.00050000

   =========================================================================

     Energy of reference wave function is  -825.1662357395001
     Maximum orbital residual is           0.1211079285745E-04


     Number of symmetry-nonredundant auxiliary basis functions:     1408

     Block lengths for integral files:
        frozen occupied (BOI):        0 MiB
        active occupied (BJI):        1 MiB
        active virtual  (BAI):        6 MiB
        frozen virtual  (BGI):        0 MiB
               general  (BTI):        7 MiB

   =========================================================================




   **************************************************************************
   *                                                                        *
   *          OPTIMIZATION OF THE GROUND STATE CLUSTER AMPLITUDES           *
   *                                                                        *
   **************************************************************************


   Iter.   MP2 energy       Norm(Omega)    Norm(t1)  Norm(t2)     cpu    wall
   ...........................................................................
    1   -828.1488459813    0.2006723653     0.00000   0.51057    1.19    3.54
   ...........................................................................


     time in total         cpu:  1 min 12 s  wall:  3 min 33 s  ratio:  0.3


     **********************************************************************
     *                                                                    *
     *   RHF  energy                             :   -825.1662357395      *
     *   MP2 correlation energy                  :     -2.9826102418      *
     *                                                                    *
     *   Final MP2 energy                        :   -828.1488459813      *
     *                                                                    *
     *   Norm of MP1 T2 amplitudes               :      0.5105706741      *
     *                                                                    *
     *   D1 diagnostic                           :      0.0578            *
     *                                                                    *
     **********************************************************************



 **************************************************************
 *                                                            *
 *    OPTIMIZATION OF THE EXCITED STATE CLUSTER AMPLITUDES    *
 *                                                            *
 **************************************************************


  preoptimize excitation energies/vectors using CCS:

  ==================================================


 ======== LINEAR CC RESPONSE SOLVER ========

    threshold for convergence: 0.10E-02
    maximum number of simultaneous jacoby matrix transformations: 15
                                                
     summary of start vectors generation:
     -------------------------------------------
     type of solution vectors      : RE0
     symmetry                      : a  
     number of vectors requested   :    15
     number of vectors generated   :    15
       -- guessed as rhs/(e_a-e_i) :    15
     -------------------------------------------
                                                

    Iter  #Vectors  time (min)    max. residual 
    --------------------------------------------
      1      15        11.21     0.15E+00  (  2)
      2      15        11.39     0.64E-01  (  7)
      3      15        11.55     0.52E-01  (  7)
      4      15        11.30     0.14E+00  ( 12)
      5      15        11.50     0.16E+00  ( 11)
  dimension of red. space became too large.
  try internal restart...
      6      15        11.41     0.71E-01  (  1)
                                                
     summary of start vectors generation:
     -------------------------------------------
     type of solution vectors      : RE0
     symmetry                      : a  
     number of vectors requested   :    15
     number of vectors generated   :    15
       -- restarted from file      :    15
     -------------------------------------------
                                                

    Iter  #Vectors  time (min)    max. residual 
    --------------------------------------------
      7      15        12.56     0.71E-01  (  1)
      8      14        10.57     0.24E-01  (  1)
      9      10         7.52     0.64E-02  (  3)
     10       5         4.14     0.18E-02  (  3)
     11       2         1.61     0.95E-03  ( 10)
    --------------------------------------------
    converged in 11 iterations

         Total time        104.81 minutes


 ===========================================




 Note that this is the intermediate result of a preoptimization!
 The convergence threshold was  0.1E-02 only!


 +==================================================================+
 | sym | multi | state |          CCS excitation energies           |
 |     |       |       +--------------------------------------------+
 |     |       |       |   Hartree    |     eV       |     cm-1     |
 +==================================================================+
 | a   |   1   |   1   |    0.1945388 |      5.29367 |    42696.322 |
 | a   |   1   |   2   |    0.2018214 |      5.49184 |    44294.669 |
 | a   |   1   |   3   |    0.2059696 |      5.60472 |    45205.100 |
 | a   |   1   |   4   |    0.2085679 |      5.67542 |    45775.369 |
 | a   |   1   |   5   |    0.2411455 |      6.56190 |    52925.329 |
 | a   |   1   |   6   |    0.2584898 |      7.03386 |    56731.951 |
 | a   |   1   |   7   |    0.2681994 |      7.29808 |    58862.974 |
 | a   |   1   |   8   |    0.2697640 |      7.34065 |    59206.363 |
 | a   |   1   |   9   |    0.2760107 |      7.51063 |    60577.351 |
 | a   |   1   |  10   |    0.2795838 |      7.60786 |    61361.554 |
 | a   |   1   |  11   |    0.2938562 |      7.99623 |    64493.986 |
 | a   |   1   |  12   |    0.3010777 |      8.19274 |    66078.911 |
 | a   |   1   |  13   |    0.3087256 |      8.40085 |    67757.431 |
 | a   |   1   |  14   |    0.3139653 |      8.54343 |    68907.422 |
 | a   |   1   |  15   |    0.3186753 |      8.67160 |    69941.153 |
 +==================================================================+




  preoptimize ADC(2) excitation energies/vectors using a quasi linear algorithm:
  ==============================================================================


 ======== LINEAR CC RESPONSE SOLVER ========

    threshold for convergence: 0.10E-02
    maximum number of simultaneous jacoby matrix transformations: 15
                                                
     summary of start vectors generation:
     -------------------------------------------
     type of solution vectors      : RE0
     symmetry                      : a  
     number of vectors requested   :    15
     number of vectors generated   :    15
       -- restarted from file      :    15
     -------------------------------------------
                                                

    Iter  #Vectors  time (min)    max. residual 
    --------------------------------------------
 threshold for this macro iteration:  4.866572923225573E-002
      1      15       123.91     0.94E-01  (  1)
 ...adapted threshold to:  6.030643128923915E-002
      2       8        48.53     0.35E-01  ( 12)
                                                
     summary of start vectors generation:
     -------------------------------------------
     type of solution vectors      : RE0
     symmetry                      : a  
     number of vectors requested   :    15
     number of vectors generated   :    15
       -- restarted from file      :    15
     -------------------------------------------
                                                

    Iter  #Vectors  time (min)    max. residual 
    --------------------------------------------
 threshold for this macro iteration:  6.655368983188747E-003
      3      15        93.74     0.34E-01  ( 12)
      4      15       112.04     0.18E-01  (  7)
      5      15        96.78     0.19E-01  ( 15)
 ...adapted threshold to:  1.221721266290660E-002
      6       6        42.93     0.67E-01  ( 15)
 ...adapted threshold to:  1.377366836383515E-002
      7       1         4.86     0.32E-01  ( 14)
 ...adapted threshold to:  1.378190604521579E-002
      8       1         4.64     0.51E-01  ( 12)
 ...adapted threshold to:  1.381189249488873E-002
      9       2         9.89     0.42E-01  ( 12)
 ...adapted threshold to:  1.420991108457198E-002
     10       1         4.85     0.40E-01  ( 12)
 ...adapted threshold to:  2.727372772912912E-002
     11       2        11.14     0.97E-01  ( 11)
 ...adapted threshold to:  2.822150082888497E-002
     12       4        25.98     0.64E-01  (  9)
 ...adapted threshold to:  2.824497868312498E-002
     13       1         4.58     0.31E-01  (  8)
 ...adapted threshold to:  2.824951501023459E-002
     14       1         4.53     0.14E-01  ( 13)
                                                
     summary of start vectors generation:
     -------------------------------------------
     type of solution vectors      : RE0
     symmetry                      : a  
     number of vectors requested   :    15
     number of vectors generated   :    15
       -- restarted from file      :    15
     -------------------------------------------
                                                

    Iter  #Vectors  time (min)    max. residual 
    --------------------------------------------
 threshold for this macro iteration:  5.406364453438173E-003
     15      15       101.58     0.14E-01  (  9)
     16       3        17.36     0.16E-01  ( 13)
     17       2        10.68     0.23E-01  ( 13)
 ...adapted threshold to:  1.311769664477441E-002
     18       2         9.77     0.93E-01  ( 13)
 ...adapted threshold to:  1.595327046915296E-002
     19       2        10.14     0.40E-01  ( 10)
     20       1         5.24     0.26E-01  ( 10)
 ...adapted threshold to:  1.595373610624912E-002
     21       1         5.08     0.17E-01  ( 10)
 ...adapted threshold to:  1.595470181906145E-002
     22       1         4.69     0.85E-02  ( 10)
                                                
     summary of start vectors generation:
     -------------------------------------------
     type of solution vectors      : RE0
     symmetry                      : a  
     number of vectors requested   :    15
     number of vectors generated   :    15
       -- restarted from file      :    15
     -------------------------------------------
                                                

    Iter  #Vectors  time (min)    max. residual 
    --------------------------------------------
 threshold for this macro iteration:  4.058327064611067E-003
     23      15        88.98     0.28E-02  ( 11)
                                                
     summary of start vectors generation:
     -------------------------------------------
     type of solution vectors      : RE0
     symmetry                      : a  
     number of vectors requested   :    15
     number of vectors generated   :    15
       -- restarted from file      :    15
     -------------------------------------------
                                                

    Iter  #Vectors  time (min)    max. residual 
    --------------------------------------------
 threshold for this macro iteration:  1.016749104376019E-003
     24      15        91.62     0.21E-02  ( 11)
 dabs(Rj-Ri):           1          10  0.108065465625229     
 dabs(Ij+Ii):           1          10  9.770455152564636E-005
 dabs(Rj-Ri):           2          10  8.386050301657266E-002
 dabs(Ij+Ii):           2          10  9.770455152564636E-005
 dabs(Rj-Ri):           3          10  8.316897601574716E-002
 dabs(Ij+Ii):           3          10  9.770455152564636E-005
 dabs(Rj-Ri):           4          10  7.882413504456409E-002
 dabs(Ij+Ii):           4          10  9.770455152564636E-005
 dabs(Rj-Ri):           5          10  3.693161070420567E-002
 dabs(Ij+Ii):           5          10  9.770455152564636E-005
 dabs(Rj-Ri):           6          10  2.806967772009286E-002
 dabs(Ij+Ii):           6          10  9.770455152564636E-005
 dabs(Rj-Ri):           7          10  2.178484592971888E-002
 dabs(Ij+Ii):           7          10  9.770455152564636E-005
 dabs(Rj-Ri):           8          10  1.588361519446468E-002
 dabs(Ij+Ii):           8          10  9.770455152564636E-005
 dabs(Rj-Ri):           9          10  1.529120680557977E-002
 dabs(Ij+Ii):           9          10  9.770455152564636E-005
 dabs(Rj-Ri):          11          10  0.000000000000000E+000
 dabs(Ij+Ii):          11          10  0.000000000000000E+000
 dabs(Rj-Ri):          12          10  5.452738626013476E-003
 dabs(Ij+Ii):          12          10  9.770455152564636E-005
 dabs(Rj-Ri):          13          10  7.389739501073023E-003
 dabs(Ij+Ii):          13          10  9.770455152564636E-005
 dabs(Rj-Ri):          14          10  2.223690953280050E-002
 dabs(Ij+Ii):          14          10  9.770455152564636E-005
 dabs(Rj-Ri):          15          10  3.220553189386227E-002
 dabs(Ij+Ii):          15          10  9.770455152564636E-005
 dabs(Rj-Ri):          16          10  5.056851779396693E-002
 dabs(Ij+Ii):          16          10  9.770455152564636E-005
 dabs(Rj-Ri):          17          10  0.159901702090611     
 dabs(Ij+Ii):          17          10  9.770455152564636E-005
 overlap matrix for complex pair:

              1             2
 
    1     0.89284605   -0.00417592
    2    -0.00417592    0.00383045
 real eigenvalues of metric:

              1
 
    1     0.89286567
    2     0.00381084
 eigenvectors of metric:

              1             2
 
    1     0.99998897    0.00469709
    2    -0.00469709    0.99998897
 inverse square root of overlap matrix:

              1             2
 
    1     1.05862952    0.07111670
    2     0.07111670   16.19872139
 recalculated overlap matrix for complex pair:

              1             2
 
    1     1.00000000    0.00000000
    2    -0.00000000    1.00000000
 dabs(Rj-Ri):           1          11  0.108065465625229     
 dabs(Ij+Ii):           1          11  9.770455152564636E-005
 dabs(Rj-Ri):           2          11  8.386050301657266E-002
 dabs(Ij+Ii):           2          11  9.770455152564636E-005
 dabs(Rj-Ri):           3          11  8.316897601574716E-002
 dabs(Ij+Ii):           3          11  9.770455152564636E-005
 dabs(Rj-Ri):           4          11  7.882413504456409E-002
 dabs(Ij+Ii):           4          11  9.770455152564636E-005
 dabs(Rj-Ri):           5          11  3.693161070420567E-002
 dabs(Ij+Ii):           5          11  9.770455152564636E-005
 dabs(Rj-Ri):           6          11  2.806967772009286E-002
 dabs(Ij+Ii):           6          11  9.770455152564636E-005
 dabs(Rj-Ri):           7          11  2.178484592971888E-002
 dabs(Ij+Ii):           7          11  9.770455152564636E-005
 dabs(Rj-Ri):           8          11  1.588361519446468E-002
 dabs(Ij+Ii):           8          11  9.770455152564636E-005
 dabs(Rj-Ri):           9          11  1.529120680557977E-002
 dabs(Ij+Ii):           9          11  9.770455152564636E-005
 dabs(Rj-Ri):          10          11  0.000000000000000E+000
 dabs(Ij+Ii):          10          11  0.000000000000000E+000
 dabs(Rj-Ri):          12          11  5.452738626013476E-003
 dabs(Ij+Ii):          12          11  9.770455152564636E-005
 dabs(Rj-Ri):          13          11  7.389739501073023E-003
 dabs(Ij+Ii):          13          11  9.770455152564636E-005
 dabs(Rj-Ri):          14          11  2.223690953280050E-002
 dabs(Ij+Ii):          14          11  9.770455152564636E-005
 dabs(Rj-Ri):          15          11  3.220553189386227E-002
 dabs(Ij+Ii):          15          11  9.770455152564636E-005
 dabs(Rj-Ri):          16          11  5.056851779396693E-002
 dabs(Ij+Ii):          16          11  9.770455152564636E-005
 dabs(Rj-Ri):          17          11  0.159901702090611     
 dabs(Ij+Ii):          17          11  9.770455152564636E-005
 overlap matrix for complex pair:

              1             2
 
    1     1.00000000   -0.00000000
    2     0.00000000    1.00000000
 real eigenvalues of metric:

              1
 
    1     1.00000000
    2     1.00000000
 eigenvectors of metric:

              1             2
 
    1     0.99244355    0.12270205
    2    -0.12270205    0.99244355
 inverse square root of overlap matrix:

              1             2
 
    1     1.00000000    0.00000000
    2     0.00000000    1.00000000
 recalculated overlap matrix for complex pair:

              1             2
 
    1     1.00000000    0.00000000
    2     0.00000000    1.00000000
 warning> found low lying complex root...
 eigenvalues (imaginary parts) in redeig:

              1
 
    1     0.00000000
    2     0.00000000
    3     0.00000000
    4     0.00000000
    5     0.00000000
    6     0.00000000
    7     0.00000000
    8     0.00000000
    9     0.00000000
   10    -0.00009770
   11     0.00009770
   12     0.00000000
   13     0.00000000
   14     0.00000000
   15     0.00000000
   16     0.00000000
   17     0.00000000
 eigenvalues (real parts) in redeig:

              1
 
    1     0.13896450
    2     0.16316946
    3     0.16386099
    4     0.16820583
    5     0.21009835
    6     0.21896029
    7     0.22524512
    8     0.23114635
    9     0.23173876
   10     0.24702997
   11     0.24702997
   12     0.25248270
   13     0.25441970
   14     0.26926687
   15     0.27923550
   16     0.29759848
   17     0.40693167
 ...adapted threshold to:  1.220427231449994E-003
     25       2        13.77     0.28E-02  ( 11)
 dabs(Rj-Ri):           1          10  0.108035349388204     
 dabs(Ij+Ii):           1          10  8.904408283640573E-005
 dabs(Rj-Ri):           2          10  8.383086848285756E-002
 dabs(Ij+Ii):           2          10  8.904408283640573E-005
 dabs(Rj-Ri):           3          10  8.313839276383531E-002
 dabs(Ij+Ii):           3          10  8.904408283640573E-005
 dabs(Rj-Ri):           4          10  7.879408628185616E-002
 dabs(Ij+Ii):           4          10  8.904408283640573E-005
 dabs(Rj-Ri):           5          10  3.690147898265675E-002
 dabs(Ij+Ii):           5          10  8.904408283640573E-005
 dabs(Rj-Ri):           6          10  2.803946244450534E-002
 dabs(Ij+Ii):           6          10  8.904408283640573E-005
 dabs(Rj-Ri):           7          10  2.175471926902084E-002
 dabs(Ij+Ii):           7          10  8.904408283640573E-005
 dabs(Rj-Ri):           8          10  1.585320619240518E-002
 dabs(Ij+Ii):           8          10  8.904408283640573E-005
 dabs(Rj-Ri):           9          10  1.526113939028020E-002
 dabs(Ij+Ii):           9          10  8.904408283640573E-005
 dabs(Rj-Ri):          11          10  0.000000000000000E+000
 dabs(Ij+Ii):          11          10  0.000000000000000E+000
 dabs(Rj-Ri):          12          10  5.481191326359158E-003
 dabs(Ij+Ii):          12          10  8.904408283640573E-005
 dabs(Rj-Ri):          13          10  7.418114646395468E-003
 dabs(Ij+Ii):          13          10  8.904408283640573E-005
 dabs(Rj-Ri):          14          10  2.221044657161991E-002
 dabs(Ij+Ii):          14          10  8.904408283640573E-005
 dabs(Rj-Ri):          15          10  3.216514350665450E-002
 dabs(Ij+Ii):          15          10  8.904408283640573E-005
 dabs(Rj-Ri):          16          10  3.568222124676323E-002
 dabs(Ij+Ii):          16          10  8.904408283640573E-005
 dabs(Rj-Ri):          17          10  5.060840372867259E-002
 dabs(Ij+Ii):          17          10  8.904408283640573E-005
 dabs(Rj-Ri):          18          10  0.110881743188708     
 dabs(Ij+Ii):          18          10  8.904408283640573E-005
 dabs(Rj-Ri):          19          10  0.191787102487989     
 dabs(Ij+Ii):          19          10  8.904408283640573E-005
 dabs(Rj-Ri):          20          10  0.363554127770338     
 dabs(Ij+Ii):          20          10  8.904408283640573E-005
 overlap matrix for complex pair:

              1             2
 
    1     0.76971021    0.00400542
    2     0.00400542    0.00378547
 real eigenvalues of metric:

              1
 
    1     0.76973115
    2     0.00376453
 eigenvectors of metric:

              1             2
 
    1     0.99998633   -0.00522931
    2     0.00522931    0.99998633
 inverse square root of overlap matrix:

              1             2
 
    1     1.14021929   -0.07926791
    2    -0.07926791   16.29798058
 recalculated overlap matrix for complex pair:

              1             2
 
    1     1.00000000    0.00000000
    2     0.00000000    1.00000000
 dabs(Rj-Ri):           1          11  0.108035349388204     
 dabs(Ij+Ii):           1          11  8.904408283640573E-005
 dabs(Rj-Ri):           2          11  8.383086848285756E-002
 dabs(Ij+Ii):           2          11  8.904408283640573E-005
 dabs(Rj-Ri):           3          11  8.313839276383531E-002
 dabs(Ij+Ii):           3          11  8.904408283640573E-005
 dabs(Rj-Ri):           4          11  7.879408628185616E-002
 dabs(Ij+Ii):           4          11  8.904408283640573E-005
 dabs(Rj-Ri):           5          11  3.690147898265675E-002
 dabs(Ij+Ii):           5          11  8.904408283640573E-005
 dabs(Rj-Ri):           6          11  2.803946244450534E-002
 dabs(Ij+Ii):           6          11  8.904408283640573E-005
 dabs(Rj-Ri):           7          11  2.175471926902084E-002
 dabs(Ij+Ii):           7          11  8.904408283640573E-005
 dabs(Rj-Ri):           8          11  1.585320619240518E-002
 dabs(Ij+Ii):           8          11  8.904408283640573E-005
 dabs(Rj-Ri):           9          11  1.526113939028020E-002
 dabs(Ij+Ii):           9          11  8.904408283640573E-005
 dabs(Rj-Ri):          10          11  0.000000000000000E+000
 dabs(Ij+Ii):          10          11  0.000000000000000E+000
 dabs(Rj-Ri):          12          11  5.481191326359158E-003
 dabs(Ij+Ii):          12          11  8.904408283640573E-005
 dabs(Rj-Ri):          13          11  7.418114646395468E-003
 dabs(Ij+Ii):          13          11  8.904408283640573E-005
 dabs(Rj-Ri):          14          11  2.221044657161991E-002
 dabs(Ij+Ii):          14          11  8.904408283640573E-005
 dabs(Rj-Ri):          15          11  3.216514350665450E-002
 dabs(Ij+Ii):          15          11  8.904408283640573E-005
 dabs(Rj-Ri):          16          11  3.568222124676323E-002
 dabs(Ij+Ii):          16          11  8.904408283640573E-005
 dabs(Rj-Ri):          17          11  5.060840372867259E-002
 dabs(Ij+Ii):          17          11  8.904408283640573E-005
 dabs(Rj-Ri):          18          11  0.110881743188708     
 dabs(Ij+Ii):          18          11  8.904408283640573E-005
 dabs(Rj-Ri):          19          11  0.191787102487989     
 dabs(Ij+Ii):          19          11  8.904408283640573E-005
 dabs(Rj-Ri):          20          11  0.363554127770338     
 dabs(Ij+Ii):          20          11  8.904408283640573E-005
 overlap matrix for complex pair:

              1             2
 
    1     1.00000000    0.00000000
    2     0.00000000    1.00000000
 real eigenvalues of metric:

              1
 
    1     1.00000000
    2     1.00000000
 eigenvectors of metric:

              1             2
 
    1     0.99726112    0.07396114
    2    -0.07396114    0.99726112
 inverse square root of overlap matrix:

              1             2
 
    1     1.00000000   -0.00000000
    2    -0.00000000    1.00000000
 recalculated overlap matrix for complex pair:

              1             2
 
    1     1.00000000   -0.00000000
    2    -0.00000000    1.00000000
 warning> found low lying complex root...
 eigenvalues (imaginary parts) in redeig:

              1
 
    1     0.00000000
    2     0.00000000
    3     0.00000000
    4     0.00000000
    5     0.00000000
    6     0.00000000
    7     0.00000000
    8     0.00000000
    9     0.00000000
   10    -0.00008904
   11     0.00008904
   12     0.00000000
   13     0.00000000
   14     0.00000000
   15     0.00000000
   16     0.00000000
   17     0.00000000
   18     0.00000000
   19     0.00000000
   20     0.00000000
 eigenvalues (real parts) in redeig:

              1
 
    1     0.13896442
    2     0.16316890
    3     0.16386138
    4     0.16820568
    5     0.21009829
    6     0.21896031
    7     0.22524505
    8     0.23114656
    9     0.23173863
   10     0.24699977
   11     0.24699977
   12     0.25248096
   13     0.25441789
   14     0.26921022
   15     0.27916491
   16     0.28268199
   17     0.29760817
   18     0.35788151
   19     0.43878687
   20     0.61055390
 ...adapted threshold to:  1.250621392769991E-003
     26       3        14.06     0.91E-02  ( 15)
 dabs(Rj-Ri):           1          10  0.108028685543013     
 dabs(Ij+Ii):           1          10  8.502658448559618E-005
 dabs(Rj-Ri):           2          10  8.382419381273434E-002
 dabs(Ij+Ii):           2          10  8.502658448559618E-005
 dabs(Rj-Ri):           3          10  8.313139032646491E-002
 dabs(Ij+Ii):           3          10  8.502658448559618E-005
 dabs(Rj-Ri):           4          10  7.878738170129712E-002
 dabs(Ij+Ii):           4          10  8.502658448559618E-005
 dabs(Rj-Ri):           5          10  3.689455401083755E-002
 dabs(Ij+Ii):           5          10  8.502658448559618E-005
 dabs(Rj-Ri):           6          10  2.803268275368218E-002
 dabs(Ij+Ii):           6          10  8.502658448559618E-005
 dabs(Rj-Ri):           7          10  2.174807629872660E-002
 dabs(Ij+Ii):           7          10  8.502658448559618E-005
 dabs(Rj-Ri):           8          10  1.584594032058498E-002
 dabs(Ij+Ii):           8          10  8.502658448559618E-005
 dabs(Rj-Ri):           9          10  1.525445009300322E-002
 dabs(Ij+Ii):           9          10  8.502658448559618E-005
 dabs(Rj-Ri):          11          10  0.000000000000000E+000
 dabs(Ij+Ii):          11          10  0.000000000000000E+000
 dabs(Rj-Ri):          12          10  5.487224596470719E-003
 dabs(Ij+Ii):          12          10  8.502658448559618E-005
 dabs(Rj-Ri):          13          10  7.423533724184805E-003
 dabs(Ij+Ii):          13          10  8.502658448559618E-005
 dabs(Rj-Ri):          14          10  2.216444325194228E-002
 dabs(Ij+Ii):          14          10  8.502658448559618E-005
 dabs(Rj-Ri):          15          10  3.052837358971461E-002
 dabs(Ij+Ii):          15          10  8.502658448559618E-005
 dabs(Rj-Ri):          16          10  3.238547523346691E-002
 dabs(Ij+Ii):          16          10  8.502658448559618E-005
 dabs(Rj-Ri):          17          10  4.188299736659717E-002
 dabs(Ij+Ii):          17          10  8.502658448559618E-005
 dabs(Rj-Ri):          18          10  8.762717746205273E-002
 dabs(Ij+Ii):          18          10  8.502658448559618E-005
 dabs(Rj-Ri):          19          10  0.121098626146707     
 dabs(Ij+Ii):          19          10  8.502658448559618E-005
 dabs(Rj-Ri):          20          10  0.204133504060038     
 dabs(Ij+Ii):          20          10  8.502658448559618E-005
 dabs(Rj-Ri):          21          10  0.243662836804558     
 dabs(Ij+Ii):          21          10  8.502658448559618E-005
 dabs(Rj-Ri):          22          10  0.712884151434696     
 dabs(Ij+Ii):          22          10  8.502658448559618E-005
 dabs(Rj-Ri):          23          10  0.833544219654501     
 dabs(Ij+Ii):          23          10  8.502658448559618E-005
 overlap matrix for complex pair:

              1             2
 
    1     0.32133292    0.09044109
    2     0.09044109    0.03118668
 real eigenvalues of metric:

              1
 
    1     0.34721535
    2     0.00530425
 eigenvectors of metric:

              1             2
 
    1     0.96140558   -0.27513506
    2     0.27513506    0.96140558
 inverse square root of overlap matrix:

              1             2
 
    1     2.60799903   -3.18305241
    2    -3.18305241   12.81962633
 recalculated overlap matrix for complex pair:

              1             2
 
    1     1.00000000   -0.00000000
    2     0.00000000    1.00000000
 dabs(Rj-Ri):           1          11  0.108028685543013     
 dabs(Ij+Ii):           1          11  8.502658448559618E-005
 dabs(Rj-Ri):           2          11  8.382419381273434E-002
 dabs(Ij+Ii):           2          11  8.502658448559618E-005
 dabs(Rj-Ri):           3          11  8.313139032646491E-002
 dabs(Ij+Ii):           3          11  8.502658448559618E-005
 dabs(Rj-Ri):           4          11  7.878738170129712E-002
 dabs(Ij+Ii):           4          11  8.502658448559618E-005
 dabs(Rj-Ri):           5          11  3.689455401083755E-002
 dabs(Ij+Ii):           5          11  8.502658448559618E-005
 dabs(Rj-Ri):           6          11  2.803268275368218E-002
 dabs(Ij+Ii):           6          11  8.502658448559618E-005
 dabs(Rj-Ri):           7          11  2.174807629872660E-002
 dabs(Ij+Ii):           7          11  8.502658448559618E-005
 dabs(Rj-Ri):           8          11  1.584594032058498E-002
 dabs(Ij+Ii):           8          11  8.502658448559618E-005
 dabs(Rj-Ri):           9          11  1.525445009300322E-002
 dabs(Ij+Ii):           9          11  8.502658448559618E-005
 dabs(Rj-Ri):          10          11  0.000000000000000E+000
 dabs(Ij+Ii):          10          11  0.000000000000000E+000
 dabs(Rj-Ri):          12          11  5.487224596470719E-003
 dabs(Ij+Ii):          12          11  8.502658448559618E-005
 dabs(Rj-Ri):          13          11  7.423533724184805E-003
 dabs(Ij+Ii):          13          11  8.502658448559618E-005
 dabs(Rj-Ri):          14          11  2.216444325194228E-002
 dabs(Ij+Ii):          14          11  8.502658448559618E-005
 dabs(Rj-Ri):          15          11  3.052837358971461E-002
 dabs(Ij+Ii):          15          11  8.502658448559618E-005
 dabs(Rj-Ri):          16          11  3.238547523346691E-002
 dabs(Ij+Ii):          16          11  8.502658448559618E-005
 dabs(Rj-Ri):          17          11  4.188299736659717E-002
 dabs(Ij+Ii):          17          11  8.502658448559618E-005
 dabs(Rj-Ri):          18          11  8.762717746205273E-002
 dabs(Ij+Ii):          18          11  8.502658448559618E-005
 dabs(Rj-Ri):          19          11  0.121098626146707     
 dabs(Ij+Ii):          19          11  8.502658448559618E-005
 dabs(Rj-Ri):          20          11  0.204133504060038     
 dabs(Ij+Ii):          20          11  8.502658448559618E-005
 dabs(Rj-Ri):          21          11  0.243662836804558     
 dabs(Ij+Ii):          21          11  8.502658448559618E-005
 dabs(Rj-Ri):          22          11  0.712884151434696     
 dabs(Ij+Ii):          22          11  8.502658448559618E-005
 dabs(Rj-Ri):          23          11  0.833544219654501     
 dabs(Ij+Ii):          23          11  8.502658448559618E-005
 overlap matrix for complex pair:

              1             2
 
    1     1.00000000    0.00000000
    2    -0.00000000    1.00000000
 real eigenvalues of metric:

              1
 
    1     1.00000000
    2     1.00000000
 eigenvectors of metric:

              1             2
 
    1     0.92840003   -0.37158226
    2     0.37158226    0.92840003
 inverse square root of overlap matrix:

              1             2
 
    1     1.00000000   -0.00000000
    2    -0.00000000    1.00000000
 recalculated overlap matrix for complex pair:

              1             2
 
    1     1.00000000   -0.00000000
    2    -0.00000000    1.00000000
 warning> found low lying complex root...
 eigenvalues (imaginary parts) in redeig:

              1
 
    1     0.00000000
    2     0.00000000
    3     0.00000000
    4     0.00000000
    5     0.00000000
    6     0.00000000
    7     0.00000000
    8     0.00000000
    9     0.00000000
   10    -0.00008503
   11     0.00008503
   12     0.00000000
   13     0.00000000
   14     0.00000000
   15     0.00000000
   16     0.00000000
   17     0.00000000
   18     0.00000000
   19     0.00000000
   20     0.00000000
   21     0.00000000
   22     0.00000000
   23     0.00000000
 eigenvalues (real parts) in redeig:

              1
 
    1     0.13896434
    2     0.16316883
    3     0.16386164
    4     0.16820564
    5     0.21009847
    6     0.21896034
    7     0.22524495
    8     0.23114709
    9     0.23173858
   10     0.24699303
   11     0.24699303
   12     0.25248025
   13     0.25441656
   14     0.26915747
   15     0.27752140
   16     0.27937850
   17     0.28887602
   18     0.33462020
   19     0.36809165
   20     0.45112653
   21     0.49065586
   22     0.95987718
   23     1.08053725
 ...adapted threshold to:  1.726461438444793E-003
     27       3        14.16     0.29E-01  ( 15)
 dabs(Rj-Ri):           1          10  0.108028225183148     
 dabs(Ij+Ii):           1          10  8.540087258062574E-005
 dabs(Rj-Ri):           2          10  8.382361392347348E-002
 dabs(Ij+Ii):           2          10  8.540087258062574E-005
 dabs(Rj-Ri):           3          10  8.313078392094186E-002
 dabs(Ij+Ii):           3          10  8.540087258062574E-005
 dabs(Rj-Ri):           4          10  7.878682404732934E-002
 dabs(Ij+Ii):           4          10  8.540087258062574E-005
 dabs(Rj-Ri):           5          10  3.689400382809196E-002
 dabs(Ij+Ii):           5          10  8.540087258062574E-005
 dabs(Rj-Ri):           6          10  2.803210326510655E-002
 dabs(Ij+Ii):           6          10  8.540087258062574E-005
 dabs(Rj-Ri):           7          10  2.174747577818376E-002
 dabs(Ij+Ii):           7          10  8.540087258062574E-005
 dabs(Rj-Ri):           8          10  1.584525059399172E-002
 dabs(Ij+Ii):           8          10  8.540087258062574E-005
 dabs(Rj-Ri):           9          10  1.525392450942997E-002
 dabs(Ij+Ii):           9          10  8.540087258062574E-005
 dabs(Rj-Ri):          11          10  0.000000000000000E+000
 dabs(Ij+Ii):          11          10  0.000000000000000E+000
 dabs(Rj-Ri):          12          10  5.487907275918247E-003
 dabs(Ij+Ii):          12          10  8.540087258062574E-005
 dabs(Rj-Ri):          13          10  7.423698396167411E-003
 dabs(Ij+Ii):          13          10  8.540087258062574E-005
 dabs(Rj-Ri):          14          10  2.212748388913477E-002
 dabs(Ij+Ii):          14          10  8.540087258062574E-005
 dabs(Rj-Ri):          15          10  2.857616928581624E-002
 dabs(Ij+Ii):          15          10  8.540087258062574E-005
 dabs(Rj-Ri):          16          10  3.229790498053625E-002
 dabs(Ij+Ii):          16          10  8.540087258062574E-005
 dabs(Rj-Ri):          17          10  4.072328483513649E-002
 dabs(Ij+Ii):          17          10  8.540087258062574E-005
 dabs(Rj-Ri):          18          10  8.168831466620563E-002
 dabs(Ij+Ii):          18          10  8.540087258062574E-005
 dabs(Rj-Ri):          19          10  8.950520547884672E-002
 dabs(Ij+Ii):          19          10  8.540087258062574E-005
 dabs(Rj-Ri):          20          10  0.148646706471044     
 dabs(Ij+Ii):          20          10  8.540087258062574E-005
 dabs(Rj-Ri):          21          10  0.204215094836040     
 dabs(Ij+Ii):          21          10  8.540087258062574E-005
 dabs(Rj-Ri):          22          10  0.223435589842553     
 dabs(Ij+Ii):          22          10  8.540087258062574E-005
 dabs(Rj-Ri):          23          10  0.647936778628970     
 dabs(Ij+Ii):          23          10  8.540087258062574E-005
 dabs(Rj-Ri):          24          10  0.822020612622596     
 dabs(Ij+Ii):          24          10  8.540087258062574E-005
 dabs(Rj-Ri):          25          10   1.29082070690461     
 dabs(Ij+Ii):          25          10  8.540087258062574E-005
 overlap matrix for complex pair:

              1             2
 
    1     0.13168919    0.07576640
    2     0.07576640    0.05254316
 real eigenvalues of metric:

              1
 
    1     0.17759465
    2     0.00663769
 eigenvectors of metric:

              1             2
 
    1     0.85526570   -0.51818972
    2     0.51818972    0.85526570
 inverse square root of overlap matrix:

              1             2
 
    1     5.03161170   -4.38811996
    2    -4.38811996    9.61546827
 recalculated overlap matrix for complex pair:

              1             2
 
    1     1.00000000   -0.00000000
    2     0.00000000    1.00000000
 dabs(Rj-Ri):           1          11  0.108028225183148     
 dabs(Ij+Ii):           1          11  8.540087258062574E-005
 dabs(Rj-Ri):           2          11  8.382361392347348E-002
 dabs(Ij+Ii):           2          11  8.540087258062574E-005
 dabs(Rj-Ri):           3          11  8.313078392094186E-002
 dabs(Ij+Ii):           3          11  8.540087258062574E-005
 dabs(Rj-Ri):           4          11  7.878682404732934E-002
 dabs(Ij+Ii):           4          11  8.540087258062574E-005
 dabs(Rj-Ri):           5          11  3.689400382809196E-002
 dabs(Ij+Ii):           5          11  8.540087258062574E-005
 dabs(Rj-Ri):           6          11  2.803210326510655E-002
 dabs(Ij+Ii):           6          11  8.540087258062574E-005
 dabs(Rj-Ri):           7          11  2.174747577818376E-002
 dabs(Ij+Ii):           7          11  8.540087258062574E-005
 dabs(Rj-Ri):           8          11  1.584525059399172E-002
 dabs(Ij+Ii):           8          11  8.540087258062574E-005
 dabs(Rj-Ri):           9          11  1.525392450942997E-002
 dabs(Ij+Ii):           9          11  8.540087258062574E-005
 dabs(Rj-Ri):          10          11  0.000000000000000E+000
 dabs(Ij+Ii):          10          11  0.000000000000000E+000
 dabs(Rj-Ri):          12          11  5.487907275918247E-003
 dabs(Ij+Ii):          12          11  8.540087258062574E-005
 dabs(Rj-Ri):          13          11  7.423698396167411E-003
 dabs(Ij+Ii):          13          11  8.540087258062574E-005
 dabs(Rj-Ri):          14          11  2.212748388913477E-002
 dabs(Ij+Ii):          14          11  8.540087258062574E-005
 dabs(Rj-Ri):          15          11  2.857616928581624E-002
 dabs(Ij+Ii):          15          11  8.540087258062574E-005
 dabs(Rj-Ri):          16          11  3.229790498053625E-002
 dabs(Ij+Ii):          16          11  8.540087258062574E-005
 dabs(Rj-Ri):          17          11  4.072328483513649E-002
 dabs(Ij+Ii):          17          11  8.540087258062574E-005
 dabs(Rj-Ri):          18          11  8.168831466620563E-002
 dabs(Ij+Ii):          18          11  8.540087258062574E-005
 dabs(Rj-Ri):          19          11  8.950520547884672E-002
 dabs(Ij+Ii):          19          11  8.540087258062574E-005
 dabs(Rj-Ri):          20          11  0.148646706471044     
 dabs(Ij+Ii):          20          11  8.540087258062574E-005
 dabs(Rj-Ri):          21          11  0.204215094836040     
 dabs(Ij+Ii):          21          11  8.540087258062574E-005
 dabs(Rj-Ri):          22          11  0.223435589842553     
 dabs(Ij+Ii):          22          11  8.540087258062574E-005
 dabs(Rj-Ri):          23          11  0.647936778628970     
 dabs(Ij+Ii):          23          11  8.540087258062574E-005
 dabs(Rj-Ri):          24          11  0.822020612622596     
 dabs(Ij+Ii):          24          11  8.540087258062574E-005
 dabs(Rj-Ri):          25          11   1.29082070690461     
 dabs(Ij+Ii):          25          11  8.540087258062574E-005
 overlap matrix for complex pair:

              1             2
 
    1     1.00000000    0.00000000
    2    -0.00000000    1.00000000
 real eigenvalues of metric:

              1
 
    1     1.00000000
    2     1.00000000
 eigenvectors of metric:

              1             2
 
    1     0.99966494    0.02588436
    2    -0.02588436    0.99966494
 inverse square root of overlap matrix:

              1             2
 
    1     1.00000000   -0.00000000
    2    -0.00000000    1.00000000
 recalculated overlap matrix for complex pair:

              1             2
 
    1     1.00000000    0.00000000
    2    -0.00000000    1.00000000
 warning> found low lying complex root...
 eigenvalues (imaginary parts) in redeig:

              1
 
    1     0.00000000
    2     0.00000000
    3     0.00000000
    4     0.00000000
    5     0.00000000
    6     0.00000000
    7     0.00000000
    8     0.00000000
    9     0.00000000
   10    -0.00008540
   11     0.00008540
   12     0.00000000
   13     0.00000000
   14     0.00000000
   15     0.00000000
   16     0.00000000
   17     0.00000000
   18     0.00000000
   19     0.00000000
   20     0.00000000
   21     0.00000000
   22     0.00000000
   23     0.00000000
   24     0.00000000
   25     0.00000000
 eigenvalues (real parts) in redeig:

              1
 
    1     0.13896423
    2     0.16316884
    3     0.16386167
    4     0.16820563
    5     0.21009845
    6     0.21896035
    7     0.22524498
    8     0.23114720
    9     0.23173853
   10     0.24699245
   11     0.24699245
   12     0.25248036
   13     0.25441615
   14     0.26911994
   15     0.27556862
   16     0.27929036
   17     0.28771574
   18     0.32868077
   19     0.33649766
   20     0.39563916
   21     0.45120755
   22     0.47042804
   23     0.89492923
   24     1.06901307
   25     1.53781316
 ...adapted threshold to:  3.679239613142704E-003
     28       2        11.07     0.17E-01  ( 15)
 dabs(Rj-Ri):           1          10  0.108028265460129     
 dabs(Ij+Ii):           1          10  8.547362878599525E-005
 dabs(Rj-Ri):           2          10  8.382352051032782E-002
 dabs(Ij+Ii):           2          10  8.547362878599525E-005
 dabs(Rj-Ri):           3          10  8.313064206342846E-002
 dabs(Ij+Ii):           3          10  8.547362878599525E-005
 dabs(Rj-Ri):           4          10  7.878672949890519E-002
 dabs(Ij+Ii):           4          10  8.547362878599525E-005
 dabs(Rj-Ri):           5          10  3.689393714037362E-002
 dabs(Ij+Ii):           5          10  8.547362878599525E-005
 dabs(Rj-Ri):           6          10  2.803200444520620E-002
 dabs(Ij+Ii):           6          10  8.547362878599525E-005
 dabs(Rj-Ri):           7          10  2.174738834701559E-002
 dabs(Ij+Ii):           7          10  8.547362878599525E-005
 dabs(Rj-Ri):           8          10  1.584510404501480E-002
 dabs(Ij+Ii):           8          10  8.547362878599525E-005
 dabs(Rj-Ri):           9          10  1.525382026866001E-002
 dabs(Ij+Ii):           9          10  8.547362878599525E-005
 dabs(Rj-Ri):          11          10  0.000000000000000E+000
 dabs(Ij+Ii):          11          10  0.000000000000000E+000
 dabs(Rj-Ri):          12          10  5.488026295491250E-003
 dabs(Ij+Ii):          12          10  8.547362878599525E-005
 dabs(Rj-Ri):          13          10  7.423788652646784E-003
 dabs(Ij+Ii):          13          10  8.547362878599525E-005
 dabs(Rj-Ri):          14          10  2.210897654673558E-002
 dabs(Ij+Ii):          14          10  8.547362878599525E-005
 dabs(Rj-Ri):          15          10  2.784674128338779E-002
 dabs(Ij+Ii):          15          10  8.547362878599525E-005
 dabs(Rj-Ri):          16          10  3.228104239324944E-002
 dabs(Ij+Ii):          16          10  8.547362878599525E-005
 dabs(Rj-Ri):          17          10  4.030105690543104E-002
 dabs(Ij+Ii):          17          10  8.547362878599525E-005
 dabs(Rj-Ri):          18          10  6.678142816704255E-002
 dabs(Ij+Ii):          18          10  8.547362878599525E-005
 dabs(Rj-Ri):          19          10  8.770670623137186E-002
 dabs(Ij+Ii):          19          10  8.547362878599525E-005
 dabs(Rj-Ri):          20          10  0.137166138882362     
 dabs(Ij+Ii):          20          10  8.547362878599525E-005
 dabs(Rj-Ri):          21          10  0.179601791277188     
 dabs(Ij+Ii):          21          10  8.547362878599525E-005
 dabs(Rj-Ri):          22          10  0.204235615708125     
 dabs(Ij+Ii):          22          10  8.547362878599525E-005
 dabs(Rj-Ri):          23          10  0.380057899085299     
 dabs(Ij+Ii):          23          10  8.547362878599525E-005
 dabs(Rj-Ri):          24          10  0.650575753360821     
 dabs(Ij+Ii):          24          10  8.547362878599525E-005
 dabs(Rj-Ri):          25          10  0.834149695737222     
 dabs(Ij+Ii):          25          10  8.547362878599525E-005
 dabs(Rj-Ri):          26          10   1.34204269774360     
 dabs(Ij+Ii):          26          10  8.547362878599525E-005
 overlap matrix for complex pair:

              1             2
 
    1     0.00387923    0.00428392
    2     0.00428392    0.47729975
 real eigenvalues of metric:

              1
 
    1     0.00384047
    2     0.47733852
 eigenvectors of metric:

              1             2
 
    1     0.99995907    0.00904776
    2    -0.00904776    0.99995907
 inverse square root of overlap matrix:

              1             2
 
    1    16.13524325   -0.13289756
    2    -0.13289756    1.44859645
 recalculated overlap matrix for complex pair:

              1             2
 
    1     1.00000000    0.00000000
    2    -0.00000000    1.00000000
 dabs(Rj-Ri):           1          11  0.108028265460129     
 dabs(Ij+Ii):           1          11  8.547362878599525E-005
 dabs(Rj-Ri):           2          11  8.382352051032782E-002
 dabs(Ij+Ii):           2          11  8.547362878599525E-005
 dabs(Rj-Ri):           3          11  8.313064206342846E-002
 dabs(Ij+Ii):           3          11  8.547362878599525E-005
 dabs(Rj-Ri):           4          11  7.878672949890519E-002
 dabs(Ij+Ii):           4          11  8.547362878599525E-005
 dabs(Rj-Ri):           5          11  3.689393714037362E-002
 dabs(Ij+Ii):           5          11  8.547362878599525E-005
 dabs(Rj-Ri):           6          11  2.803200444520620E-002
 dabs(Ij+Ii):           6          11  8.547362878599525E-005
 dabs(Rj-Ri):           7          11  2.174738834701559E-002
 dabs(Ij+Ii):           7          11  8.547362878599525E-005
 dabs(Rj-Ri):           8          11  1.584510404501480E-002
 dabs(Ij+Ii):           8          11  8.547362878599525E-005
 dabs(Rj-Ri):           9          11  1.525382026866001E-002
 dabs(Ij+Ii):           9          11  8.547362878599525E-005
 dabs(Rj-Ri):          10          11  0.000000000000000E+000
 dabs(Ij+Ii):          10          11  0.000000000000000E+000
 dabs(Rj-Ri):          12          11  5.488026295491250E-003
 dabs(Ij+Ii):          12          11  8.547362878599525E-005
 dabs(Rj-Ri):          13          11  7.423788652646784E-003
 dabs(Ij+Ii):          13          11  8.547362878599525E-005
 dabs(Rj-Ri):          14          11  2.210897654673558E-002
 dabs(Ij+Ii):          14          11  8.547362878599525E-005
 dabs(Rj-Ri):          15          11  2.784674128338779E-002
 dabs(Ij+Ii):          15          11  8.547362878599525E-005
 dabs(Rj-Ri):          16          11  3.228104239324944E-002
 dabs(Ij+Ii):          16          11  8.547362878599525E-005
 dabs(Rj-Ri):          17          11  4.030105690543104E-002
 dabs(Ij+Ii):          17          11  8.547362878599525E-005
 dabs(Rj-Ri):          18          11  6.678142816704255E-002
 dabs(Ij+Ii):          18          11  8.547362878599525E-005
 dabs(Rj-Ri):          19          11  8.770670623137186E-002
 dabs(Ij+Ii):          19          11  8.547362878599525E-005
 dabs(Rj-Ri):          20          11  0.137166138882362     
 dabs(Ij+Ii):          20          11  8.547362878599525E-005
 dabs(Rj-Ri):          21          11  0.179601791277188     
 dabs(Ij+Ii):          21          11  8.547362878599525E-005
 dabs(Rj-Ri):          22          11  0.204235615708125     
 dabs(Ij+Ii):          22          11  8.547362878599525E-005
 dabs(Rj-Ri):          23          11  0.380057899085299     
 dabs(Ij+Ii):          23          11  8.547362878599525E-005
 dabs(Rj-Ri):          24          11  0.650575753360821     
 dabs(Ij+Ii):          24          11  8.547362878599525E-005
 dabs(Rj-Ri):          25          11  0.834149695737222     
 dabs(Ij+Ii):          25          11  8.547362878599525E-005
 dabs(Rj-Ri):          26          11   1.34204269774360     
 dabs(Ij+Ii):          26          11  8.547362878599525E-005
 overlap matrix for complex pair:

              1             2
 
    1     1.00000000   -0.00000000
    2     0.00000000    1.00000000
 real eigenvalues of metric:

              1
 
    1     1.00000000
    2     1.00000000
 eigenvectors of metric:

              1             2
 
    1     0.84196847    0.53952673
    2    -0.53952673    0.84196847
 inverse square root of overlap matrix:

              1             2
 
    1     1.00000000    0.00000000
    2     0.00000000    1.00000000
 recalculated overlap matrix for complex pair:

              1             2
 
    1     1.00000000   -0.00000000
    2     0.00000000    1.00000000
 warning> found low lying complex root...
 eigenvalues (imaginary parts) in redeig:

              1
 
    1     0.00000000
    2     0.00000000
    3     0.00000000
    4     0.00000000
    5     0.00000000
    6     0.00000000
    7     0.00000000
    8     0.00000000
    9     0.00000000
   10    -0.00008547
   11     0.00008547
   12     0.00000000
   13     0.00000000
   14     0.00000000
   15     0.00000000
   16     0.00000000
   17     0.00000000
   18     0.00000000
   19     0.00000000
   20     0.00000000
   21     0.00000000
   22     0.00000000
   23     0.00000000
   24     0.00000000
   25     0.00000000
   26     0.00000000
 eigenvalues (real parts) in redeig:

              1
 
    1     0.13896410
    2     0.16316884
    3     0.16386172
    4     0.16820564
    5     0.21009843
    6     0.21896036
    7     0.22524498
    8     0.23114726
    9     0.23173855
   10     0.24699237
   11     0.24699237
   12     0.25248039
   13     0.25441615
   14     0.26910134
   15     0.27483911
   16     0.27927341
   17     0.28729342
   18     0.31377379
   19     0.33469907
   20     0.38415850
   21     0.42659416
   22     0.45122798
   23     0.62705026
   24     0.89756812
   25     1.08114206
   26     1.58903506
 ...adapted threshold to:  4.408755034121414E-003
     29       1         4.47     0.15E-01  ( 15)
 dabs(Rj-Ri):           1          10  0.108028614354035     
 dabs(Ij+Ii):           1          10  8.548323026411494E-005
 dabs(Rj-Ri):           2          10  8.382346708756055E-002
 dabs(Ij+Ii):           2          10  8.548323026411494E-005
 dabs(Rj-Ri):           3          10  8.313062896801796E-002
 dabs(Ij+Ii):           3          10  8.548323026411494E-005
 dabs(Rj-Ri):           4          10  7.878671533229975E-002
 dabs(Ij+Ii):           4          10  8.548323026411494E-005
 dabs(Rj-Ri):           5          10  3.689394250868830E-002
 dabs(Ij+Ii):           5          10  8.548323026411494E-005
 dabs(Rj-Ri):           6          10  2.803198085474840E-002
 dabs(Ij+Ii):           6          10  8.548323026411494E-005
 dabs(Rj-Ri):           7          10  2.174736489091431E-002
 dabs(Ij+Ii):           7          10  8.548323026411494E-005
 dabs(Rj-Ri):           8          10  1.584512652442654E-002
 dabs(Ij+Ii):           8          10  8.548323026411494E-005
 dabs(Rj-Ri):           9          10  1.525382961068988E-002
 dabs(Ij+Ii):           9          10  8.548323026411494E-005
 dabs(Rj-Ri):          11          10  0.000000000000000E+000
 dabs(Ij+Ii):          11          10  0.000000000000000E+000
 dabs(Rj-Ri):          12          10  5.488058846645549E-003
 dabs(Ij+Ii):          12          10  8.548323026411494E-005
 dabs(Rj-Ri):          13          10  7.423873936061198E-003
 dabs(Ij+Ii):          13          10  8.548323026411494E-005
 dabs(Rj-Ri):          14          10  2.209997211691916E-002
 dabs(Ij+Ii):          14          10  8.548323026411494E-005
 dabs(Rj-Ri):          15          10  2.750361518821492E-002
 dabs(Ij+Ii):          15          10  8.548323026411494E-005
 dabs(Rj-Ri):          16          10  3.227649956916245E-002
 dabs(Ij+Ii):          16          10  8.548323026411494E-005
 dabs(Rj-Ri):          17          10  4.028716328535564E-002
 dabs(Ij+Ii):          17          10  8.548323026411494E-005
 dabs(Rj-Ri):          18          10  5.920134117282733E-002
 dabs(Ij+Ii):          18          10  8.548323026411494E-005
 dabs(Rj-Ri):          19          10  8.734116489429611E-002
 dabs(Ij+Ii):          19          10  8.548323026411494E-005
 dabs(Rj-Ri):          20          10  0.122810024690322     
 dabs(Ij+Ii):          20          10  8.548323026411494E-005
 dabs(Rj-Ri):          21          10  0.158841326345820     
 dabs(Ij+Ii):          21          10  8.548323026411494E-005
 dabs(Rj-Ri):          22          10  0.204084088992663     
 dabs(Ij+Ii):          22          10  8.548323026411494E-005
 dabs(Rj-Ri):          23          10  0.248495176611803     
 dabs(Ij+Ii):          23          10  8.548323026411494E-005
 dabs(Rj-Ri):          24          10  0.573300858564157     
 dabs(Ij+Ii):          24          10  8.548323026411494E-005
 dabs(Rj-Ri):          25          10  0.734810186961305     
 dabs(Ij+Ii):          25          10  8.548323026411494E-005
 dabs(Rj-Ri):          26          10  0.919647599351892     
 dabs(Ij+Ii):          26          10  8.548323026411494E-005
 dabs(Rj-Ri):          27          10   1.35914073421712     
 dabs(Ij+Ii):          27          10  8.548323026411494E-005
 overlap matrix for complex pair:

              1             2
 
    1     0.67349259    0.01508832
    2     0.01508832    0.00400872
 real eigenvalues of metric:

              1
 
    1     0.67383246
    2     0.00366884
 eigenvectors of metric:

              1             2
 
    1     0.99974639   -0.02252010
    2     0.02252010    0.99974639
 inverse square root of overlap matrix:

              1             2
 
    1     1.22597034   -0.34427517
    2    -0.34427517   16.50179923
 recalculated overlap matrix for complex pair:

              1             2
 
    1     1.00000000    0.00000000
    2     0.00000000    1.00000000
 dabs(Rj-Ri):           1          11  0.108028614354035     
 dabs(Ij+Ii):           1          11  8.548323026411494E-005
 dabs(Rj-Ri):           2          11  8.382346708756055E-002
 dabs(Ij+Ii):           2          11  8.548323026411494E-005
 dabs(Rj-Ri):           3          11  8.313062896801796E-002
 dabs(Ij+Ii):           3          11  8.548323026411494E-005
 dabs(Rj-Ri):           4          11  7.878671533229975E-002
 dabs(Ij+Ii):           4          11  8.548323026411494E-005
 dabs(Rj-Ri):           5          11  3.689394250868830E-002
 dabs(Ij+Ii):           5          11  8.548323026411494E-005
 dabs(Rj-Ri):           6          11  2.803198085474840E-002
 dabs(Ij+Ii):           6          11  8.548323026411494E-005
 dabs(Rj-Ri):           7          11  2.174736489091431E-002
 dabs(Ij+Ii):           7          11  8.548323026411494E-005
 dabs(Rj-Ri):           8          11  1.584512652442654E-002
 dabs(Ij+Ii):           8          11  8.548323026411494E-005
 dabs(Rj-Ri):           9          11  1.525382961068988E-002
 dabs(Ij+Ii):           9          11  8.548323026411494E-005
 dabs(Rj-Ri):          10          11  0.000000000000000E+000
 dabs(Ij+Ii):          10          11  0.000000000000000E+000
 dabs(Rj-Ri):          12          11  5.488058846645549E-003
 dabs(Ij+Ii):          12          11  8.548323026411494E-005
 dabs(Rj-Ri):          13          11  7.423873936061198E-003
 dabs(Ij+Ii):          13          11  8.548323026411494E-005
 dabs(Rj-Ri):          14          11  2.209997211691916E-002
 dabs(Ij+Ii):          14          11  8.548323026411494E-005
 dabs(Rj-Ri):          15          11  2.750361518821492E-002
 dabs(Ij+Ii):          15          11  8.548323026411494E-005
 dabs(Rj-Ri):          16          11  3.227649956916245E-002
 dabs(Ij+Ii):          16          11  8.548323026411494E-005
 dabs(Rj-Ri):          17          11  4.028716328535564E-002
 dabs(Ij+Ii):          17          11  8.548323026411494E-005
 dabs(Rj-Ri):          18          11  5.920134117282733E-002
 dabs(Ij+Ii):          18          11  8.548323026411494E-005
 dabs(Rj-Ri):          19          11  8.734116489429611E-002
 dabs(Ij+Ii):          19          11  8.548323026411494E-005
 dabs(Rj-Ri):          20          11  0.122810024690322     
 dabs(Ij+Ii):          20          11  8.548323026411494E-005
 dabs(Rj-Ri):          21          11  0.158841326345820     
 dabs(Ij+Ii):          21          11  8.548323026411494E-005
 dabs(Rj-Ri):          22          11  0.204084088992663     
 dabs(Ij+Ii):          22          11  8.548323026411494E-005
 dabs(Rj-Ri):          23          11  0.248495176611803     
 dabs(Ij+Ii):          23          11  8.548323026411494E-005
 dabs(Rj-Ri):          24          11  0.573300858564157     
 dabs(Ij+Ii):          24          11  8.548323026411494E-005
 dabs(Rj-Ri):          25          11  0.734810186961305     
 dabs(Ij+Ii):          25          11  8.548323026411494E-005
 dabs(Rj-Ri):          26          11  0.919647599351892     
 dabs(Ij+Ii):          26          11  8.548323026411494E-005
 dabs(Rj-Ri):          27          11   1.35914073421712     
 dabs(Ij+Ii):          27          11  8.548323026411494E-005
 overlap matrix for complex pair:

              1             2
 
    1     1.00000000    0.00000000
    2     0.00000000    1.00000000
 real eigenvalues of metric:

              1
 
    1     1.00000000
    2     1.00000000
 eigenvectors of metric:

              1             2
 
    1     0.99998409   -0.00564162
    2     0.00564162    0.99998409
 inverse square root of overlap matrix:

              1             2
 
    1     1.00000000   -0.00000000
    2    -0.00000000    1.00000000
 recalculated overlap matrix for complex pair:

              1             2
 
    1     1.00000000   -0.00000000
    2    -0.00000000    1.00000000
 warning> found low lying complex root...
 eigenvalues (imaginary parts) in redeig:

              1
 
    1     0.00000000
    2     0.00000000
    3     0.00000000
    4     0.00000000
    5     0.00000000
    6     0.00000000
    7     0.00000000
    8     0.00000000
    9     0.00000000
   10    -0.00008548
   11     0.00008548
   12     0.00000000
   13     0.00000000
   14     0.00000000
   15     0.00000000
   16     0.00000000
   17     0.00000000
   18     0.00000000
   19     0.00000000
   20     0.00000000
   21     0.00000000
   22     0.00000000
   23     0.00000000
   24     0.00000000
   25     0.00000000
   26     0.00000000
   27     0.00000000
 eigenvalues (real parts) in redeig:

              1
 
    1     0.13896373
    2     0.16316887
    3     0.16386171
    4     0.16820563
    5     0.21009840
    6     0.21896036
    7     0.22524498
    8     0.23114722
    9     0.23173851
   10     0.24699234
   11     0.24699234
   12     0.25248040
   13     0.25441622
   14     0.26909231
   15     0.27449596
   16     0.27926884
   17     0.28727951
   18     0.30619368
   19     0.33433351
   20     0.36980237
   21     0.40583367
   22     0.45107643
   23     0.49548752
   24     0.82029320
   25     0.98180253
   26     1.16663994
   27     1.60613308
 ...adapted threshold to:  4.751904503412008E-003
     30       1         4.58     0.11E-01  ( 15)
 dabs(Rj-Ri):           1          10  0.108029465858441     
 dabs(Ij+Ii):           1          10  8.543085817755971E-005
 dabs(Rj-Ri):           2          10  8.382341103395669E-002
 dabs(Ij+Ii):           2          10  8.543085817755971E-005
 dabs(Rj-Ri):           3          10  8.313062275721517E-002
 dabs(Ij+Ii):           3          10  8.543085817755971E-005
 dabs(Rj-Ri):           4          10  7.878670526543158E-002
 dabs(Ij+Ii):           4          10  8.543085817755971E-005
 dabs(Rj-Ri):           5          10  3.689398976422051E-002
 dabs(Ij+Ii):           5          10  8.543085817755971E-005
 dabs(Rj-Ri):           6          10  2.803196316385920E-002
 dabs(Ij+Ii):           6          10  8.543085817755971E-005
 dabs(Rj-Ri):           7          10  2.174735371314476E-002
 dabs(Ij+Ii):           7          10  8.543085817755971E-005
 dabs(Rj-Ri):           8          10  1.584518633315010E-002
 dabs(Ij+Ii):           8          10  8.543085817755971E-005
 dabs(Rj-Ri):           9          10  1.525403720483162E-002
 dabs(Ij+Ii):           9          10  8.543085817755971E-005
 dabs(Rj-Ri):          11          10  0.000000000000000E+000
 dabs(Ij+Ii):          11          10  0.000000000000000E+000
 dabs(Rj-Ri):          12          10  5.488063462460419E-003
 dabs(Ij+Ii):          12          10  8.543085817755971E-005
 dabs(Rj-Ri):          13          10  7.423908463494083E-003
 dabs(Ij+Ii):          13          10  8.543085817755971E-005
 dabs(Rj-Ri):          14          10  2.209221505819162E-002
 dabs(Ij+Ii):          14          10  8.543085817755971E-005
 dabs(Rj-Ri):          15          10  2.722492971029503E-002
 dabs(Ij+Ii):          15          10  8.543085817755971E-005
 dabs(Rj-Ri):          16          10  3.227211355400780E-002
 dabs(Ij+Ii):          16          10  8.543085817755971E-005
 dabs(Rj-Ri):          17          10  4.021344823564985E-002
 dabs(Ij+Ii):          17          10  8.543085817755971E-005
 dabs(Rj-Ri):          18          10  5.132880789657648E-002
 dabs(Ij+Ii):          18          10  8.543085817755971E-005
 dabs(Rj-Ri):          19          10  8.564317320220297E-002
 dabs(Ij+Ii):          19          10  8.543085817755971E-005
 dabs(Rj-Ri):          20          10  9.238612805893934E-002
 dabs(Ij+Ii):          20          10  8.543085817755971E-005
 dabs(Rj-Ri):          21          10  0.146593074745374     
 dabs(Ij+Ii):          21          10  8.543085817755971E-005
 dabs(Rj-Ri):          22          10  0.187182754951028     
 dabs(Ij+Ii):          22          10  8.543085817755971E-005
 dabs(Rj-Ri):          23          10  0.204885975753002     
 dabs(Ij+Ii):          23          10  8.543085817755971E-005
 dabs(Rj-Ri):          24          10  0.344128773961302     
 dabs(Ij+Ii):          24          10  8.543085817755971E-005
 dabs(Rj-Ri):          25          10  0.659092912331223     
 dabs(Ij+Ii):          25          10  8.543085817755971E-005
 dabs(Rj-Ri):          26          10  0.831544655149037     
 dabs(Ij+Ii):          26          10  8.543085817755971E-005
 dabs(Rj-Ri):          27          10   1.21439209809422     
 dabs(Ij+Ii):          27          10  8.543085817755971E-005
 dabs(Rj-Ri):          28          10   1.37974950140776     
 dabs(Ij+Ii):          28          10  8.543085817755971E-005
 overlap matrix for complex pair:

              1             2
 
    1     0.83814801    0.09922840
    2     0.09922840    0.01596348
 real eigenvalues of metric:

              1
 
    1     0.84995423
    2     0.00415727
 eigenvectors of metric:

              1             2
 
    1     0.99299613   -0.11814689
    2     0.11814689    0.99299613
 inverse square root of overlap matrix:

              1             2
 
    1     1.28603221   -1.69230415
    2    -1.69230415   15.30808937
 recalculated overlap matrix for complex pair:

              1             2
 
    1     1.00000000    0.00000000
    2     0.00000000    1.00000000
 dabs(Rj-Ri):           1          11  0.108029465858441     
 dabs(Ij+Ii):           1          11  8.543085817755971E-005
 dabs(Rj-Ri):           2          11  8.382341103395669E-002
 dabs(Ij+Ii):           2          11  8.543085817755971E-005
 dabs(Rj-Ri):           3          11  8.313062275721517E-002
 dabs(Ij+Ii):           3          11  8.543085817755971E-005
 dabs(Rj-Ri):           4          11  7.878670526543158E-002
 dabs(Ij+Ii):           4          11  8.543085817755971E-005
 dabs(Rj-Ri):           5          11  3.689398976422051E-002
 dabs(Ij+Ii):           5          11  8.543085817755971E-005
 dabs(Rj-Ri):           6          11  2.803196316385920E-002
 dabs(Ij+Ii):           6          11  8.543085817755971E-005
 dabs(Rj-Ri):           7          11  2.174735371314476E-002
 dabs(Ij+Ii):           7          11  8.543085817755971E-005
 dabs(Rj-Ri):           8          11  1.584518633315010E-002
 dabs(Ij+Ii):           8          11  8.543085817755971E-005
 dabs(Rj-Ri):           9          11  1.525403720483162E-002
 dabs(Ij+Ii):           9          11  8.543085817755971E-005
 dabs(Rj-Ri):          10          11  0.000000000000000E+000
 dabs(Ij+Ii):          10          11  0.000000000000000E+000
 dabs(Rj-Ri):          12          11  5.488063462460419E-003
 dabs(Ij+Ii):          12          11  8.543085817755971E-005
 dabs(Rj-Ri):          13          11  7.423908463494083E-003
 dabs(Ij+Ii):          13          11  8.543085817755971E-005
 dabs(Rj-Ri):          14          11  2.209221505819162E-002
 dabs(Ij+Ii):          14          11  8.543085817755971E-005
 dabs(Rj-Ri):          15          11  2.722492971029503E-002
 dabs(Ij+Ii):          15          11  8.543085817755971E-005
 dabs(Rj-Ri):          16          11  3.227211355400780E-002
 dabs(Ij+Ii):          16          11  8.543085817755971E-005
 dabs(Rj-Ri):          17          11  4.021344823564985E-002
 dabs(Ij+Ii):          17          11  8.543085817755971E-005
 dabs(Rj-Ri):          18          11  5.132880789657648E-002
 dabs(Ij+Ii):          18          11  8.543085817755971E-005
 dabs(Rj-Ri):          19          11  8.564317320220297E-002
 dabs(Ij+Ii):          19          11  8.543085817755971E-005
 dabs(Rj-Ri):          20          11  9.238612805893934E-002
 dabs(Ij+Ii):          20          11  8.543085817755971E-005
 dabs(Rj-Ri):          21          11  0.146593074745374     
 dabs(Ij+Ii):          21          11  8.543085817755971E-005
 dabs(Rj-Ri):          22          11  0.187182754951028     
 dabs(Ij+Ii):          22          11  8.543085817755971E-005
 dabs(Rj-Ri):          23          11  0.204885975753002     
 dabs(Ij+Ii):          23          11  8.543085817755971E-005
 dabs(Rj-Ri):          24          11  0.344128773961302     
 dabs(Ij+Ii):          24          11  8.543085817755971E-005
 dabs(Rj-Ri):          25          11  0.659092912331223     
 dabs(Ij+Ii):          25          11  8.543085817755971E-005
 dabs(Rj-Ri):          26          11  0.831544655149037     
 dabs(Ij+Ii):          26          11  8.543085817755971E-005
 dabs(Rj-Ri):          27          11   1.21439209809422     
 dabs(Ij+Ii):          27          11  8.543085817755971E-005
 dabs(Rj-Ri):          28          11   1.37974950140776     
 dabs(Ij+Ii):          28          11  8.543085817755971E-005
 overlap matrix for complex pair:

              1             2
 
    1     1.00000000    0.00000000
    2     0.00000000    1.00000000
 real eigenvalues of metric:

              1
 
    1     1.00000000
    2     1.00000000
 eigenvectors of metric:

              1             2
 
    1     0.98815177    0.15347990
    2    -0.15347990    0.98815177
 inverse square root of overlap matrix:

              1             2
 
    1     1.00000000   -0.00000000
    2    -0.00000000    1.00000000
 recalculated overlap matrix for complex pair:

              1             2
 
    1     1.00000000   -0.00000000
    2    -0.00000000    1.00000000
 warning> found low lying complex root...
 eigenvalues (imaginary parts) in redeig:

              1
 
    1     0.00000000
    2     0.00000000
    3     0.00000000
    4     0.00000000
    5     0.00000000
    6     0.00000000
    7     0.00000000
    8     0.00000000
    9     0.00000000
   10    -0.00008543
   11     0.00008543
   12     0.00000000
   13     0.00000000
   14     0.00000000
   15     0.00000000
   16     0.00000000
   17     0.00000000
   18     0.00000000
   19     0.00000000
   20     0.00000000
   21     0.00000000
   22     0.00000000
   23     0.00000000
   24     0.00000000
   25     0.00000000
   26     0.00000000
   27     0.00000000
   28     0.00000000
 eigenvalues (real parts) in redeig:

              1
 
    1     0.13896286
    2     0.16316892
    3     0.16386171
    4     0.16820562
    5     0.21009834
    6     0.21896037
    7     0.22524497
    8     0.23114714
    9     0.23173829
   10     0.24699233
   11     0.24699233
   12     0.25248039
   13     0.25441624
   14     0.26908454
   15     0.27421726
   16     0.27926444
   17     0.28720578
   18     0.29832114
   19     0.33263550
   20     0.33937846
   21     0.39358540
   22     0.43417508
   23     0.45187830
   24     0.59112110
   25     0.90608524
   26     1.07853698
   27     1.46138443
   28     1.62674183
 ...adapted threshold to:  5.030603650032328E-003
     31       1         4.62     0.12E-01  ( 15)
 dabs(Rj-Ri):           1          10  0.108030845214437     
 dabs(Ij+Ii):           1          10  8.528270184990450E-005
 dabs(Rj-Ri):           2          10  8.382338464336275E-002
 dabs(Ij+Ii):           2          10  8.528270184990450E-005
 dabs(Rj-Ri):           3          10  8.313061782767425E-002
 dabs(Ij+Ii):           3          10  8.528270184990450E-005
 dabs(Rj-Ri):           4          10  7.878669945930267E-002
 dabs(Ij+Ii):           4          10  8.528270184990450E-005
 dabs(Rj-Ri):           5          10  3.689394438250007E-002
 dabs(Ij+Ii):           5          10  8.528270184990450E-005
 dabs(Rj-Ri):           6          10  2.803194150846280E-002
 dabs(Ij+Ii):           6          10  8.528270184990450E-005
 dabs(Rj-Ri):           7          10  2.174734455199748E-002
 dabs(Ij+Ii):           7          10  8.528270184990450E-005
 dabs(Rj-Ri):           8          10  1.584519122730613E-002
 dabs(Ij+Ii):           8          10  8.528270184990450E-005
 dabs(Rj-Ri):           9          10  1.525451677416700E-002
 dabs(Ij+Ii):           9          10  8.528270184990450E-005
 dabs(Rj-Ri):          11          10  0.000000000000000E+000
 dabs(Ij+Ii):          11          10  0.000000000000000E+000
 dabs(Rj-Ri):          12          10  5.488040437755415E-003
 dabs(Ij+Ii):          12          10  8.528270184990450E-005
 dabs(Rj-Ri):          13          10  7.423925347968263E-003
 dabs(Ij+Ii):          13          10  8.528270184990450E-005
 dabs(Rj-Ri):          14          10  2.208087903907152E-002
 dabs(Ij+Ii):          14          10  8.528270184990450E-005
 dabs(Rj-Ri):          15          10  2.676867866751875E-002
 dabs(Ij+Ii):          15          10  8.528270184990450E-005
 dabs(Rj-Ri):          16          10  3.226172328026289E-002
 dabs(Ij+Ii):          16          10  8.528270184990450E-005
 dabs(Rj-Ri):          17          10  3.903114621901604E-002
 dabs(Ij+Ii):          17          10  8.528270184990450E-005
 dabs(Rj-Ri):          18          10  4.146906326350080E-002
 dabs(Ij+Ii):          18          10  8.528270184990450E-005
 dabs(Rj-Ri):          19          10  7.084294650665390E-002
 dabs(Ij+Ii):          19          10  8.528270184990450E-005
 dabs(Rj-Ri):          20          10  8.740866211725357E-002
 dabs(Ij+Ii):          20          10  8.528270184990450E-005
 dabs(Rj-Ri):          21          10  0.136272294853621     
 dabs(Ij+Ii):          21          10  8.528270184990450E-005
 dabs(Rj-Ri):          22          10  0.170428465765417     
 dabs(Ij+Ii):          22          10  8.528270184990450E-005
 dabs(Rj-Ri):          23          10  0.204811196700213     
 dabs(Ij+Ii):          23          10  8.528270184990450E-005
 dabs(Rj-Ri):          24          10  0.257753996082492     
 dabs(Ij+Ii):          24          10  8.528270184990450E-005
[...]
     | xangmom   |      0.01157818 |     -0.01157818 |       0.00013405    |
     | yangmom   |     -0.00643860 |      0.00643860 |       0.00004146    |
     | zangmom   |     -1.00076038 |      1.00076038 |       1.00152133    |
     +-----------+-----------------+-----------------+---------------------+
 
       oscillator strength (length gauge)   :      0.00092816
       oscillator strength (velocity gauge) :      0.00441188
       oscillator strength (mixed gauge)    :      0.00130394
 
       rotator strength (length gauge)      :     -0.00012672 a.u.
       Rotator strength (length gauge)      :     -0.05973944 10^(-40)*erg*cm^3
       rotator strength (velocity gauge)    :     -0.00056281 a.u.
       Rotator strength (velocity gauge)    :     -0.26533499 10^(-40)*erg*cm^3
 


  +=========================================================================+
  |  Transition                                             model: ADC(2)   |
  |    number, symmetry, multiplicity:    6 a    1                          |
  |    frequency :   0.2189600022 a.u.     5.95820 e.V.     48056.2 rcm     |
  +=========================================================================+

     +-----------+-----------------+-----------------+---------------------+
     | operator  |   left moment   |  right moment   | transition strength |
     +-----------+-----------------+-----------------+---------------------+
     | xdiplen   |     -0.00285105 |     -0.00285105 |       0.00000813    |
     | ydiplen   |      0.00629620 |      0.00629620 |       0.00003964    |
     | zdiplen   |     -0.07212298 |     -0.07212298 |       0.00520172    |
     | xdipvel   |     -0.00058401 |      0.00058401 |       0.00000034    |
     | ydipvel   |      0.00074896 |     -0.00074896 |       0.00000056    |
     | zdipvel   |     -0.02857997 |      0.02857997 |       0.00081681    |
     | xangmom   |     -0.13328373 |      0.13328373 |       0.01776455    |
     | yangmom   |      0.39472631 |     -0.39472631 |       0.15580886    |
     | zangmom   |     -0.05716347 |      0.05716347 |       0.00326766    |
     +-----------+-----------------+-----------------+---------------------+
 
       oscillator strength (length gauge)   :      0.00076629
       oscillator strength (velocity gauge) :      0.00248970
       oscillator strength (mixed gauge)    :      0.00137844
 
       rotator strength (length gauge)      :      0.00349404 a.u.
       Rotator strength (length gauge)      :      1.64724076 10^(-40)*erg*cm^3
       rotator strength (velocity gauge)    :      0.00458349 a.u.
       Rotator strength (velocity gauge)    :      2.16085679 10^(-40)*erg*cm^3
 


  +=========================================================================+
  |  Transition                                             model: ADC(2)   |
  |    number, symmetry, multiplicity:    7 a    1                          |
  |    frequency :   0.2252472614 a.u.     6.12929 e.V.     49436.1 rcm     |
  +=========================================================================+

     +-----------+-----------------+-----------------+---------------------+
     | operator  |   left moment   |  right moment   | transition strength |
     +-----------+-----------------+-----------------+---------------------+
     | xdiplen   |     -0.60545228 |     -0.60545228 |       0.36657247    |
     | ydiplen   |      1.33874848 |      1.33874848 |       1.79224749    |
     | zdiplen   |     -0.00955319 |     -0.00955319 |       0.00009126    |
     | xdipvel   |     -0.12890458 |      0.12890458 |       0.01661639    |
     | ydipvel   |      0.28791315 |     -0.28791315 |       0.08289398    |
     | zdipvel   |     -0.00194531 |      0.00194531 |       0.00000378    |
     | xangmom   |     -0.00156643 |      0.00156643 |       0.00000245    |
     | yangmom   |     -0.01285430 |      0.01285430 |       0.00016523    |
     | zangmom   |     -1.22999254 |      1.22999254 |       1.51288165    |
     +-----------+-----------------+-----------------+---------------------+
 
       oscillator strength (length gauge)   :      0.32419256
       oscillator strength (velocity gauge) :      0.29453309
       oscillator strength (mixed gauge)    :      0.30900497
 
       rotator strength (length gauge)      :     -0.00225496 a.u.
       Rotator strength (length gauge)      :     -1.06308580 10^(-40)*erg*cm^3
       rotator strength (velocity gauge)    :     -0.00245571 a.u.
       Rotator strength (velocity gauge)    :     -1.15773063 10^(-40)*erg*cm^3
 


  +=========================================================================+
  |  Transition                                             model: ADC(2)   |
  |    number, symmetry, multiplicity:    8 a    1                          |
  |    frequency :   0.2311427237 a.u.     6.28971 e.V.     50730.0 rcm     |
  +=========================================================================+

     +-----------+-----------------+-----------------+---------------------+
     | operator  |   left moment   |  right moment   | transition strength |
     +-----------+-----------------+-----------------+---------------------+
     | xdiplen   |      0.06583988 |      0.06583988 |       0.00433489    |
     | ydiplen   |     -0.04118762 |     -0.04118762 |       0.00169642    |
     | zdiplen   |     -0.01070700 |     -0.01070700 |       0.00011464    |
     | xdipvel   |      0.02641911 |     -0.02641911 |       0.00069797    |
     | ydipvel   |      0.00853112 |     -0.00853112 |       0.00007278    |
     | zdipvel   |     -0.00423542 |      0.00423542 |       0.00001794    |
     | xangmom   |     -0.00470975 |      0.00470975 |       0.00002218    |
     | yangmom   |      0.05171457 |     -0.05171457 |       0.00267440    |
     | zangmom   |      0.12712836 |     -0.12712836 |       0.01616162    |
     +-----------+-----------------+-----------------+---------------------+
 
       oscillator strength (length gauge)   :      0.00094706
       oscillator strength (velocity gauge) :      0.00227475
       oscillator strength (mixed gauge)    :      0.00095560
 
       rotator strength (length gauge)      :     -0.00190063 a.u.
       Rotator strength (length gauge)      :     -0.89603813 10^(-40)*erg*cm^3
       rotator strength (velocity gauge)    :     -0.00047954 a.u.
       Rotator strength (velocity gauge)    :     -0.22607734 10^(-40)*erg*cm^3
 


  +=========================================================================+
  |  Transition                                             model: ADC(2)   |
  |    number, symmetry, multiplicity:    9 a    1                          |
  |    frequency :   0.2316896195 a.u.     6.30460 e.V.     50850.0 rcm     |
  +=========================================================================+

     +-----------+-----------------+-----------------+---------------------+
     | operator  |   left moment   |  right moment   | transition strength |
     +-----------+-----------------+-----------------+---------------------+
     | xdiplen   |      0.00426417 |      0.00426417 |       0.00001818    |
     | ydiplen   |     -0.00464640 |     -0.00464640 |       0.00002159    |
     | zdiplen   |      0.02882390 |      0.02882390 |       0.00083082    |
     | xdipvel   |      0.00051124 |     -0.00051124 |       0.00000026    |
     | ydipvel   |     -0.00129199 |      0.00129199 |       0.00000167    |
     | zdipvel   |      0.01005142 |     -0.01005142 |       0.00010103    |
     | xangmom   |     -0.02657148 |      0.02657148 |       0.00070604    |
     | yangmom   |      0.06833241 |     -0.06833241 |       0.00466932    |
     | zangmom   |      0.00036471 |     -0.00036471 |       0.00000013    |
     +-----------+-----------------+-----------------+---------------------+
 
       oscillator strength (length gauge)   :      0.00013447
       oscillator strength (velocity gauge) :      0.00029626
       oscillator strength (mixed gauge)    :      0.00019860
 
       rotator strength (length gauge)      :     -0.00021015 a.u.
       Rotator strength (length gauge)      :     -0.09907212 10^(-40)*erg*cm^3
       rotator strength (velocity gauge)    :     -0.00021193 a.u.
       Rotator strength (velocity gauge)    :     -0.09991236 10^(-40)*erg*cm^3
 


  +=========================================================================+
  |  Transition                                             model: ADC(2)   |
  |    number, symmetry, multiplicity:   10 a    1                          |
  |    frequency :   0.2470357693 a.u.     6.72219 e.V.     54218.1 rcm     |
  +=========================================================================+

     +-----------+-----------------+-----------------+---------------------+
     | operator  |   left moment   |  right moment   | transition strength |
     +-----------+-----------------+-----------------+---------------------+
     | xdiplen   |      0.06329222 |      0.06329222 |       0.00400591    |
     | ydiplen   |      0.02969309 |      0.02969309 |       0.00088168    |
     | zdiplen   |      0.16463224 |      0.16463224 |       0.02710377    |
     | xdipvel   |      0.01179648 |     -0.01179648 |       0.00013916    |
     | ydipvel   |      0.00428829 |     -0.00428829 |       0.00001839    |
     | zdipvel   |      0.04268243 |     -0.04268243 |       0.00182179    |
     | xangmom   |      0.34728894 |     -0.34728894 |       0.12060961    |
     | yangmom   |     -0.38863574 |      0.38863574 |       0.15103774    |
     | zangmom   |     -0.00031271 |      0.00031271 |       0.00000010    |
     +-----------+-----------------+-----------------+---------------------+
 
       oscillator strength (length gauge)   :      0.00526867
       oscillator strength (velocity gauge) :      0.00534156
       oscillator strength (mixed gauge)    :      0.00526724
 
       rotator strength (length gauge)      :      0.00519471 a.u.
       Rotator strength (length gauge)      :      2.44901020 10^(-40)*erg*cm^3
       rotator strength (velocity gauge)    :      0.00489172 a.u.
       Rotator strength (velocity gauge)    :      2.30616803 10^(-40)*erg*cm^3
 


  +=========================================================================+
  |  Transition                                             model: ADC(2)   |
  |    number, symmetry, multiplicity:   11 a    1                          |
  |    frequency :   0.2473566052 a.u.     6.73092 e.V.     54288.5 rcm     |
  +=========================================================================+

     +-----------+-----------------+-----------------+---------------------+
     | operator  |   left moment   |  right moment   | transition strength |
     +-----------+-----------------+-----------------+---------------------+
     | xdiplen   |      0.00088084 |      0.00088084 |       0.00000078    |
     | ydiplen   |      0.00343719 |      0.00343719 |       0.00001181    |
     | zdiplen   |     -0.01299162 |     -0.01299162 |       0.00016878    |
     | xdipvel   |      0.00013506 |     -0.00013506 |       0.00000002    |
     | ydipvel   |      0.00085381 |     -0.00085381 |       0.00000073    |
     | zdipvel   |     -0.00261489 |      0.00261489 |       0.00000684    |
     | xangmom   |     -0.15783130 |      0.15783130 |       0.02491072    |
     | yangmom   |      0.00931325 |     -0.00931325 |       0.00008674    |
     | zangmom   |     -0.00406383 |      0.00406383 |       0.00001651    |
     +-----------+-----------------+-----------------+---------------------+
 
       oscillator strength (length gauge)   :      0.00002991
       oscillator strength (velocity gauge) :      0.00002044
       oscillator strength (mixed gauge)    :      0.00002468
 
       rotator strength (length gauge)      :     -0.00002711 a.u.
       Rotator strength (length gauge)      :     -0.01278011 10^(-40)*erg*cm^3
       rotator strength (velocity gauge)    :     -0.00000553 a.u.
       Rotator strength (velocity gauge)    :     -0.00260928 10^(-40)*erg*cm^3
 


  +=========================================================================+
  |  Transition                                             model: ADC(2)   |
  |    number, symmetry, multiplicity:   12 a    1                          |
  |    frequency :   0.2523725907 a.u.     6.86741 e.V.     55389.4 rcm     |
  +=========================================================================+

     +-----------+-----------------+-----------------+---------------------+
     | operator  |   left moment   |  right moment   | transition strength |
     +-----------+-----------------+-----------------+---------------------+
     | xdiplen   |      0.07173403 |      0.07173403 |       0.00514577    |
     | ydiplen   |      0.00101863 |      0.00101863 |       0.00000104    |
     | zdiplen   |      0.13290570 |      0.13290570 |       0.01766392    |
     | xdipvel   |      0.01582169 |     -0.01582169 |       0.00025033    |
     | ydipvel   |     -0.00006731 |      0.00006731 |       0.00000000    |
     | zdipvel   |      0.04056527 |     -0.04056527 |       0.00164554    |
     | xangmom   |      0.22560102 |     -0.22560102 |       0.05089582    |
     | yangmom   |     -0.13935384 |      0.13935384 |       0.01941949    |
     | zangmom   |     -0.02861739 |      0.02861739 |       0.00081896    |
     +-----------+-----------------+-----------------+---------------------+
 
       oscillator strength (length gauge)   :      0.00383787
       oscillator strength (velocity gauge) :      0.00500813
       oscillator strength (mixed gauge)    :      0.00435083
 
       rotator strength (length gauge)      :      0.00611895 a.u.
       Rotator strength (length gauge)      :      2.88474113 10^(-40)*erg*cm^3
       rotator strength (velocity gauge)    :      0.00479033 a.u.
       Rotator strength (velocity gauge)    :      2.25837106 10^(-40)*erg*cm^3
 


  +=========================================================================+
  |  Transition                                             model: ADC(2)   |
  |    number, symmetry, multiplicity:   13 a    1                          |
  |    frequency :   0.2544187449 a.u.     6.92309 e.V.     55838.5 rcm     |
  +=========================================================================+

     +-----------+-----------------+-----------------+---------------------+
     | operator  |   left moment   |  right moment   | transition strength |
     +-----------+-----------------+-----------------+---------------------+
     | xdiplen   |     -1.74857799 |     -1.74857799 |       3.05752498    |
     | ydiplen   |     -0.53854724 |     -0.53854724 |       0.29003313    |
     | zdiplen   |      0.01727797 |      0.01727797 |       0.00029853    |
     | xdipvel   |     -0.41548774 |      0.41548774 |       0.17263006    |
     | ydipvel   |     -0.12058317 |      0.12058317 |       0.01454030    |
     | zdipvel   |      0.00617496 |     -0.00617496 |       0.00003813    |
     | xangmom   |      0.03499035 |     -0.03499035 |       0.00122432    |
     | yangmom   |     -0.05076418 |      0.05076418 |       0.00257700    |
     | zangmom   |      0.38505595 |     -0.38505595 |       0.14826809    |
     +-----------+-----------------+-----------------+---------------------+
 
       oscillator strength (length gauge)   :      0.56783832
       oscillator strength (velocity gauge) :      0.49055215
       oscillator strength (mixed gauge)    :      0.52770609
 
       rotator strength (length gauge)      :     -0.01359573 a.u.
       Rotator strength (length gauge)      :     -6.40961973 10^(-40)*erg*cm^3
       rotator strength (velocity gauge)    :     -0.01186833 a.u.
       Rotator strength (velocity gauge)    :     -5.59524855 10^(-40)*erg*cm^3
 


  +=========================================================================+
  |  Transition                                             model: ADC(2)   |
  |    number, symmetry, multiplicity:   14 a    1                          |
  |    frequency :   0.2645882853 a.u.     7.19981 e.V.     58070.4 rcm     |
  +=========================================================================+

     +-----------+-----------------+-----------------+---------------------+
     | operator  |   left moment   |  right moment   | transition strength |
     +-----------+-----------------+-----------------+---------------------+
     | xdiplen   |      0.00813697 |      0.00813697 |       0.00006621    |
     | ydiplen   |      0.00453184 |      0.00453184 |       0.00002054    |
     | zdiplen   |      0.00203312 |      0.00203312 |       0.00000413    |
     | xdipvel   |      0.00193713 |     -0.00193713 |       0.00000375    |
     | ydipvel   |      0.00133872 |     -0.00133872 |       0.00000179    |
     | zdipvel   |      0.00092945 |     -0.00092945 |       0.00000086    |
     | xangmom   |      0.17272326 |     -0.17272326 |       0.02983332    |
     | yangmom   |      0.09842190 |     -0.09842190 |       0.00968687    |
     | zangmom   |     -0.01715767 |      0.01715767 |       0.00029439    |
     +-----------+-----------------+-----------------+---------------------+
 
       oscillator strength (length gauge)   :      0.00001603
       oscillator strength (velocity gauge) :      0.00001615
       oscillator strength (mixed gauge)    :      0.00001581
 
       rotator strength (length gauge)      :      0.00090830 a.u.
       Rotator strength (length gauge)      :      0.42821034 10^(-40)*erg*cm^3
       rotator strength (velocity gauge)    :      0.00085113 a.u.
       Rotator strength (velocity gauge)    :      0.40126127 10^(-40)*erg*cm^3
 


  +=========================================================================+
  |  Transition                                             model: ADC(2)   |
  |    number, symmetry, multiplicity:   15 a    1                          |
  |    frequency :   0.2691615528 a.u.     7.32426 e.V.     59074.1 rcm     |
  +=========================================================================+

     +-----------+-----------------+-----------------+---------------------+
     | operator  |   left moment   |  right moment   | transition strength |
     +-----------+-----------------+-----------------+---------------------+
     | xdiplen   |     -0.49496918 |     -0.49496918 |       0.24499449    |
     | ydiplen   |     -0.11662750 |     -0.11662750 |       0.01360197    |
     | zdiplen   |     -0.00044217 |     -0.00044217 |       0.00000020    |
     | xdipvel   |     -0.10153137 |      0.10153137 |       0.01030862    |
     | ydipvel   |     -0.01739812 |      0.01739812 |       0.00030269    |
     | zdipvel   |      0.00027861 |     -0.00027861 |       0.00000008    |
     | xangmom   |      0.00464826 |     -0.00464826 |       0.00002161    |
     | yangmom   |     -0.01257223 |      0.01257223 |       0.00015806    |
     | zangmom   |      0.07772644 |     -0.07772644 |       0.00604140    |
     +-----------+-----------------+-----------------+---------------------+
 
       oscillator strength (length gauge)   :      0.04640285
       oscillator strength (velocity gauge) :      0.02628258
       oscillator strength (mixed gauge)    :      0.03485592
 
       rotator strength (length gauge)      :     -0.00043442 a.u.
       Rotator strength (length gauge)      :     -0.20480588 10^(-40)*erg*cm^3
       rotator strength (velocity gauge)    :     -0.00043014 a.u.
       Rotator strength (velocity gauge)    :     -0.20278797 10^(-40)*erg*cm^3
 
 Exporting transition densities


    ------------------------------------------------------------------------
         total  cpu-time : 10 hours 56 minutes and 46 seconds
         total wall-time :   1 days 17 hours 48 minutes and 18 seconds
    ------------------------------------------------------------------------


   ****  ricc2 : all done  ****


    2023-02-17 12:01:43.163 

