 Entering Gaussian System, Link 0=g09
 Initial command:
 /apps/software//g09/l1.exe /scratch/matheusmaximo/65017.cluster.abaxnet/Gau-17491.inp -scrdir=/scratch/matheusmaximo/65017.cluster.abaxnet/
 Entering Link 1 = /apps/software//g09/l1.exe PID=     17492.
  
 Copyright (c) 1988,1990,1992,1993,1995,1998,2003,2009, Gaussian, Inc.
                  All Rights Reserved.
  
 This is part of the Gaussian(R) 09 program.  It is based on
 the Gaussian(R) 03 system (copyright 2003, Gaussian, Inc.),
 the Gaussian(R) 98 system (copyright 1998, Gaussian, Inc.),
 the Gaussian(R) 94 system (copyright 1995, Gaussian, Inc.),
 the Gaussian 92(TM) system (copyright 1992, Gaussian, Inc.),
 the Gaussian 90(TM) system (copyright 1990, Gaussian, Inc.),
 the Gaussian 88(TM) system (copyright 1988, Gaussian, Inc.),
 the Gaussian 86(TM) system (copyright 1986, Carnegie Mellon
 University), and the Gaussian 82(TM) system (copyright 1983,
 Carnegie Mellon University). Gaussian is a federally registered
 trademark of Gaussian, Inc.
  
 This software contains proprietary and confidential information,
 including trade secrets, belonging to Gaussian, Inc.
  
 This software is provided under written license and may be
 used, copied, transmitted, or stored only in accord with that
 written license.
  
 The following legend is applicable only to US Government
 contracts under FAR:
  
                    RESTRICTED RIGHTS LEGEND
  
 Use, reproduction and disclosure by the US Government is
 subject to restrictions as set forth in subparagraphs (a)
 and (c) of the Commercial Computer Software - Restricted
 Rights clause in FAR 52.227-19.
  
 Gaussian, Inc.
 340 Quinnipiac St., Bldg. 40, Wallingford CT 06492
  
  
 ---------------------------------------------------------------
 Warning -- This program may not be used in any manner that
 competes with the business of Gaussian, Inc. or will provide
 assistance to any competitor of Gaussian, Inc.  The licensee
 of this program is prohibited from giving any competitor of
 Gaussian, Inc. access to this program.  By using this program,
 the user acknowledges that Gaussian, Inc. is engaged in the
 business of creating and licensing software in the field of
 computational chemistry and represents and warrants to the
 licensee that it is not a competitor of Gaussian, Inc. and that
 it will not use this program in any manner prohibited above.
 ---------------------------------------------------------------
  

 Cite this work as:
 Gaussian 09, Revision A.02,
 M. J. Frisch, G. W. Trucks, H. B. Schlegel, G. E. Scuseria, 
 M. A. Robb, J. R. Cheeseman, G. Scalmani, V. Barone, B. Mennucci, 
 G. A. Petersson, H. Nakatsuji, M. Caricato, X. Li, H. P. Hratchian, 
 A. F. Izmaylov, J. Bloino, G. Zheng, J. L. Sonnenberg, M. Hada, 
 M. Ehara, K. Toyota, R. Fukuda, J. Hasegawa, M. Ishida, T. Nakajima, 
 Y. Honda, O. Kitao, H. Nakai, T. Vreven, J. A. Montgomery, Jr., 
 J. E. Peralta, F. Ogliaro, M. Bearpark, J. J. Heyd, E. Brothers, 
 K. N. Kudin, V. N. Staroverov, R. Kobayashi, J. Normand, 
 K. Raghavachari, A. Rendell, J. C. Burant, S. S. Iyengar, J. Tomasi, 
 M. Cossi, N. Rega, J. M. Millam, M. Klene, J. E. Knox, J. B. Cross, 
 V. Bakken, C. Adamo, J. Jaramillo, R. Gomperts, R. E. Stratmann, 
 O. Yazyev, A. J. Austin, R. Cammi, C. Pomelli, J. W. Ochterski, 
 R. L. Martin, K. Morokuma, V. G. Zakrzewski, G. A. Voth, 
 P. Salvador, J. J. Dannenberg, S. Dapprich, A. D. Daniels, 
 O. Farkas, J. B. Foresman, J. V. Ortiz, J. Cioslowski, 
 and D. J. Fox, Gaussian, Inc., Wallingford CT, 2009.
 
 ******************************************
 Gaussian 09:  EM64L-G09RevA.02 11-Jun-2009
                 8-Feb-2023 
 ******************************************
 %chk=/home/matheusmaximo/Gaussian/substituent/cl/cl_s0.chk
 ---------------------------------------------------
 # opt=tight freq cam-b3lyp/gen scf=qc int=ultrafine
 ---------------------------------------------------
 1/7=10,14=-1,18=20,19=15,26=3,38=1/1,3;
 2/9=110,12=2,17=6,18=5,40=1/2;
 3/5=7,11=2,16=1,25=1,30=1,71=1,74=-40,75=-5/1,2,3;
 4//1;
 5/5=2,8=3,38=5/8;
 6/7=2,8=2,9=2,10=2,28=1/1;
 7//1,2,3,16;
 1/7=10,14=-1,18=20,19=15/3(2);
 2/9=110/2;
 99//99;
 2/9=110/2;
 3/5=7,6=1,11=2,16=1,25=1,30=1,71=1,74=-40,75=-5,82=7/1,2,3;
 4/5=5,16=3/1;
 5/5=2,8=3,38=5/8;
 7//1,2,3,16;
 1/7=10,14=-1,18=20,19=15/3(-5);
 2/9=110/2;
 6/7=2,8=2,9=2,10=2,19=2,28=1/1;
 99/9=1/99;
 --------------------------
 NA+Cl CAM-B3LYP def2-TZVPD
 --------------------------
 Symbolic Z-matrix:
 Charge =  0 Multiplicity = 1
 C                    -1.22053  -0.18724   0. 
 C                    -0.38069  -1.29017   0.00057 
 C                    -0.88266  -2.57771   0.00147 
 C                    -2.247    -2.77352  -0.00062 
 C                    -3.12908  -1.69168  -0.00335 
 C                    -2.56677  -0.41276  -0.00157 
 H                    -0.82374   0.81635   0.00313 
 H                    -0.19893  -3.41243   0.00321 
 H                    -2.64765  -3.77872  -0.00463 
 N                     1.06034  -1.0779    0.00311 
 O                     1.77791  -2.05813   0.00628 
 O                     1.46377   0.06835   0.00219 
 N                    -4.48492  -1.83918  -0.04298 
 H                    -4.88143  -2.73312   0.18331 
 H                    -5.05725  -1.03465   0.14282 
 Cl                   -3.54312   0.77815   0.0057 
 

 GradGradGradGradGradGradGradGradGradGradGradGradGradGradGradGradGradGrad
 Berny optimization.
 Initialization pass.
                           ----------------------------
                           !    Initial Parameters    !
                           ! (Angstroms and Degrees)  !
 --------------------------                            --------------------------
 ! Name  Definition              Value          Derivative Info.                !
 --------------------------------------------------------------------------------
 ! R1    R(1,2)                  1.3863         estimate D2E/DX2                !
 ! R2    R(1,6)                  1.365          estimate D2E/DX2                !
 ! R3    R(1,7)                  1.0792         estimate D2E/DX2                !
 ! R4    R(2,3)                  1.3819         estimate D2E/DX2                !
 ! R5    R(2,10)                 1.4566         estimate D2E/DX2                !
 ! R6    R(3,4)                  1.3783         estimate D2E/DX2                !
 ! R7    R(3,8)                  1.079          estimate D2E/DX2                !
 ! R8    R(4,5)                  1.3959         estimate D2E/DX2                !
 ! R9    R(4,9)                  1.0821         estimate D2E/DX2                !
 ! R10   R(5,6)                  1.3971         estimate D2E/DX2                !
 ! R11   R(5,13)                 1.3644         estimate D2E/DX2                !
 ! R12   R(6,16)                 1.54           estimate D2E/DX2                !
 ! R13   R(10,11)                1.2148         estimate D2E/DX2                !
 ! R14   R(10,12)                1.2152         estimate D2E/DX2                !
 ! R15   R(13,14)                1.0038         estimate D2E/DX2                !
 ! R16   R(13,15)                1.0047         estimate D2E/DX2                !
 ! A1    A(2,1,6)              117.7778         estimate D2E/DX2                !
 ! A2    A(2,1,7)              121.1396         estimate D2E/DX2                !
 ! A3    A(6,1,7)              121.0824         estimate D2E/DX2                !
 ! A4    A(1,2,3)              121.4129         estimate D2E/DX2                !
 ! A5    A(1,2,10)             118.9081         estimate D2E/DX2                !
 ! A6    A(3,2,10)             119.6789         estimate D2E/DX2                !
 ! A7    A(2,3,4)              119.4666         estimate D2E/DX2                !
 ! A8    A(2,3,8)              119.3791         estimate D2E/DX2                !
 ! A9    A(4,3,8)              121.1542         estimate D2E/DX2                !
 ! A10   A(3,4,5)              121.0249         estimate D2E/DX2                !
 ! A11   A(3,4,9)              119.8986         estimate D2E/DX2                !
 ! A12   A(5,4,9)              119.076          estimate D2E/DX2                !
 ! A13   A(4,5,6)              117.0738         estimate D2E/DX2                !
 ! A14   A(4,5,13)             122.972          estimate D2E/DX2                !
 ! A15   A(6,5,13)             119.9306         estimate D2E/DX2                !
 ! A16   A(1,6,5)              123.2437         estimate D2E/DX2                !
 ! A17   A(1,6,16)             119.8355         estimate D2E/DX2                !
 ! A18   A(5,6,16)             116.9201         estimate D2E/DX2                !
 ! A19   A(2,10,11)            117.826          estimate D2E/DX2                !
 ! A20   A(2,10,12)            117.769          estimate D2E/DX2                !
 ! A21   A(11,10,12)           124.405          estimate D2E/DX2                !
 ! A22   A(5,13,14)            118.8327         estimate D2E/DX2                !
 ! A23   A(5,13,15)            118.3046         estimate D2E/DX2                !
 ! A24   A(14,13,15)           116.5164         estimate D2E/DX2                !
 ! D1    D(6,1,2,3)             -0.0914         estimate D2E/DX2                !
 ! D2    D(6,1,2,10)          -179.9605         estimate D2E/DX2                !
 ! D3    D(7,1,2,3)            179.7621         estimate D2E/DX2                !
 ! D4    D(7,1,2,10)            -0.107          estimate D2E/DX2                !
 ! D5    D(2,1,6,5)             -0.0365         estimate D2E/DX2                !
 ! D6    D(2,1,6,16)           179.6588         estimate D2E/DX2                !
 ! D7    D(7,1,6,5)           -179.89           estimate D2E/DX2                !
 ! D8    D(7,1,6,16)            -0.1948         estimate D2E/DX2                !
 ! D9    D(1,2,3,4)              0.116          estimate D2E/DX2                !
 ! D10   D(1,2,3,8)           -179.9196         estimate D2E/DX2                !
 ! D11   D(10,2,3,4)           179.9841         estimate D2E/DX2                !
 ! D12   D(10,2,3,8)            -0.0515         estimate D2E/DX2                !
 ! D13   D(1,2,10,11)          179.8556         estimate D2E/DX2                !
 ! D14   D(1,2,10,12)           -0.1305         estimate D2E/DX2                !
 ! D15   D(3,2,10,11)           -0.0158         estimate D2E/DX2                !
 ! D16   D(3,2,10,12)          179.9981         estimate D2E/DX2                !
 ! D17   D(2,3,4,5)             -0.013          estimate D2E/DX2                !
 ! D18   D(2,3,4,9)            179.7128         estimate D2E/DX2                !
 ! D19   D(8,3,4,5)           -179.9767         estimate D2E/DX2                !
 ! D20   D(8,3,4,9)             -0.2509         estimate D2E/DX2                !
 ! D21   D(3,4,5,6)             -0.1061         estimate D2E/DX2                !
 ! D22   D(3,4,5,13)           178.1226         estimate D2E/DX2                !
 ! D23   D(9,4,5,6)           -179.8341         estimate D2E/DX2                !
 ! D24   D(9,4,5,13)            -1.6054         estimate D2E/DX2                !
 ! D25   D(4,5,6,1)              0.133          estimate D2E/DX2                !
 ! D26   D(4,5,6,16)          -179.5704         estimate D2E/DX2                !
 ! D27   D(13,5,6,1)          -178.1523         estimate D2E/DX2                !
 ! D28   D(13,5,6,16)            2.1442         estimate D2E/DX2                !
 ! D29   D(4,5,13,14)           16.8153         estimate D2E/DX2                !
 ! D30   D(4,5,13,15)          167.8967         estimate D2E/DX2                !
 ! D31   D(6,5,13,14)         -165.0047         estimate D2E/DX2                !
 ! D32   D(6,5,13,15)          -13.9232         estimate D2E/DX2                !
 --------------------------------------------------------------------------------
 Trust Radius=3.00D-01 FncErr=1.00D-07 GrdErr=1.00D-06
 Number of steps in this run=  82 maximum allowed number of steps= 100.
 GradGradGradGradGradGradGradGradGradGradGradGradGradGradGradGradGradGrad

                          Input orientation:                          
 ---------------------------------------------------------------------
 Center     Atomic      Atomic             Coordinates (Angstroms)
 Number     Number       Type             X           Y           Z
 ---------------------------------------------------------------------
      1          6           0       -1.220527   -0.187240    0.000000
      2          6           0       -0.380691   -1.290173    0.000568
      3          6           0       -0.882663   -2.577709    0.001469
      4          6           0       -2.246998   -2.773521   -0.000618
      5          6           0       -3.129076   -1.691685   -0.003354
      6          6           0       -2.566768   -0.412762   -0.001566
      7          1           0       -0.823736    0.816351    0.003132
      8          1           0       -0.198927   -3.412431    0.003210
      9          1           0       -2.647648   -3.778721   -0.004632
     10          7           0        1.060345   -1.077902    0.003115
     11          8           0        1.777910   -2.058131    0.006279
     12          8           0        1.463767    0.068353    0.002190
     13          7           0       -4.484923   -1.839175   -0.042981
     14          1           0       -4.881426   -2.733122    0.183307
     15          1           0       -5.057252   -1.034648    0.142822
     16         17           0       -3.543122    0.778153    0.005700
 ---------------------------------------------------------------------
                    Distance matrix (angstroms):
                    1          2          3          4          5
     1  C    0.000000
     2  C    1.386285   0.000000
     3  C    2.414228   1.381929   0.000000
     4  C    2.782533   2.383993   1.378316   0.000000
     5  C    2.430211   2.777562   2.414836   1.395865   0.000000
     6  C    1.365001   2.355587   2.742848   2.382317   1.397081
     7  H    1.079189   2.152612   3.394572   3.861718   3.406593
     8  H    3.383125   2.130029   1.079008   2.145417   3.398056
     9  H    3.864639   3.366303   2.134863   1.082111   2.141844
    10  N    2.448605   1.456588   2.454527   3.716672   4.234149
    11  O    3.534246   2.291145   2.710836   4.087996   4.920659
    12  O    2.696436   2.290768   3.536578   4.673974   4.918533
    13  N    3.658827   4.141017   3.677456   2.425511   1.364421
    14  H    4.462880   4.729917   4.005912   2.641150   2.046990
    15  H    3.931788   4.685697   4.452888   3.307836   2.042285
    16  Cl   2.515247   3.778753   4.282508   3.780789   2.504319
                    6          7          8          9         10
     6  C    0.000000
     7  H    2.132816   0.000000
     8  H    3.821610   4.274691   0.000000
     9  H    3.366932   4.943825   2.475977   0.000000
    10  N    3.687598   2.671695   2.652506   4.587341   0.000000
    11  O    4.645807   3.877011   2.396251   4.748274   1.214808
    12  O    4.059150   2.406693   3.857513   5.630609   1.215175
    13  N    2.390750   4.523078   4.565854   2.671870   5.597468
    14  H    3.282665   5.394078   4.734944   2.473533   6.170646
    15  H    2.571012   4.622593   5.410791   3.654842   6.119345
    16  Cl   1.540000   2.719656   5.361403   4.644037   4.963553
                   11         12         13         14         15
    11  O    0.000000
    12  O    2.149567   0.000000
    13  N    6.266852   6.247209   0.000000
    14  H    6.695798   6.938483   1.003774   0.000000
    15  H    6.912713   6.615140   1.004663   1.708030   0.000000
    16  Cl   6.029750   5.056953   2.782043   3.761868   2.365933
                   16
    16  Cl   0.000000
 Stoichiometry    C6H5ClN2O2
 Framework group  C1[X(C6H5ClN2O2)]
 Deg. of freedom    42
 Full point group                 C1      NOp   1
 Largest Abelian subgroup         C1      NOp   1
 Largest concise Abelian subgroup C1      NOp   1
                         Standard orientation:                         
 ---------------------------------------------------------------------
 Center     Atomic      Atomic             Coordinates (Angstroms)
 Number     Number       Type             X           Y           Z
 ---------------------------------------------------------------------
      1          6           0       -0.195826   -0.833993   -0.002187
      2          6           0       -1.177592    0.144742   -0.001619
      3          6           0       -0.855023    1.488496   -0.000718
      4          6           0        0.470108    1.867678   -0.002804
      5          6           0        1.490862    0.915578   -0.005540
      6          6           0        1.107346   -0.427831   -0.003753
      7          1           0       -0.452727   -1.882153    0.000946
      8          1           0       -1.645729    2.222689    0.001023
      9          1           0        0.730614    2.917956   -0.006818
     10          7           0       -2.576480   -0.261157    0.000928
     11          8           0       -3.420452    0.612605    0.004092
     12          8           0       -2.820587   -1.451561    0.000004
     13          7           0        2.814142    1.245734   -0.045167
     14          1           0        3.085640    2.185226    0.181120
     15          1           0        3.490374    0.526335    0.140635
     16         17           0        2.236309   -1.475204    0.003513
 ---------------------------------------------------------------------
 Rotational constants (GHZ):      2.0251697      0.6408249      0.4868650
 General basis read from cards:  (5D, 7F)
 There are   467 symmetry adapted basis functions of A   symmetry.
 Integral buffers will be    131072 words long.
 Raffenetti 2 integral format.
 Two-electron integral symmetry is turned on.
   467 basis functions,   720 primitive gaussians,   533 cartesian basis functions
    44 alpha electrons       44 beta electrons
       nuclear repulsion energy       679.5647077719 Hartrees.
 NAtoms=   16 NActive=   16 NUniq=   16 SFac= 7.50D-01 NAtFMM=   80 NAOKFM=F Big=F
 One-electron integrals computed using PRISM.
 NBasis=   467 RedAO= T  NBF=   467
 NBsUse=   466 1.00D-06 NBFU=   466
 Harris functional with IExCor=20419 diagonalized for initial guess.
 ExpMin= 3.54D-02 ExpMax= 6.95D+04 ExpMxC= 2.37D+03 IAcc=3 IRadAn=         5 AccDes= 0.00D+00
 HarFok:  IExCor=20419 AccDes= 0.00D+00 IRadAn=         5 IDoV= 1
 ScaDFX=  1.000000  1.000000  1.000000  1.000000
 FoFCou: FMM=F IPFlag=           0 FMFlag=      100000 FMFlg1=           0
         NFxFlg=           0 DoJE=T BraDBF=F KetDBF=T FulRan=T
         Omega=  0.000000  0.000000  1.000000  0.000000  0.000000 ICntrl=     500 IOpCl=  0
         NMat0=    1 NMatS0=    1 NMatT0=    0 NMatD0=    1 NMtDS0=    0 NMtDT0=    0
         I1Cent=           4 NGrid=           0.
 Petite list used in FoFCou.
 Initial guess orbital symmetries:
       Occupied  (A) (A) (A) (A) (A) (A) (A) (A) (A) (A) (A) (A)
                 (A) (A) (A) (A) (A) (A) (A) (A) (A) (A) (A) (A)
                 (A) (A) (A) (A) (A) (A) (A) (A) (A) (A) (A) (A)
                 (A) (A) (A) (A) (A) (A) (A) (A)
       Virtual   (A) (A) (A) (A) (A) (A) (A) (A) (A) (A) (A) (A)
                 (A) (A) (A) (A) (A) (A) (A) (A) (A) (A) (A) (A)
                 (A) (A) (A) (A) (A) (A) (A) (A) (A) (A) (A) (A)
                 (A) (A) (A) (A) (A) (A) (A) (A) (A) (A) (A) (A)
                 (A) (A) (A) (A) (A) (A) (A) (A) (A) (A) (A) (A)
                 (A) (A) (A) (A) (A) (A) (A) (A) (A) (A) (A) (A)
                 (A) (A) (A) (A) (A) (A) (A) (A) (A) (A) (A) (A)
                 (A) (A) (A) (A) (A) (A) (A) (A) (A) (A) (A) (A)
                 (A) (A) (A) (A) (A) (A) (A) (A) (A) (A) (A) (A)
                 (A) (A) (A) (A) (A) (A) (A) (A) (A) (A) (A) (A)
                 (A) (A) (A) (A) (A) (A) (A) (A) (A) (A) (A) (A)
                 (A) (A) (A) (A) (A) (A) (A) (A) (A) (A) (A) (A)
                 (A) (A) (A) (A) (A) (A) (A) (A) (A) (A) (A) (A)
                 (A) (A) (A) (A) (A) (A) (A) (A) (A) (A) (A) (A)
                 (A) (A) (A) (A) (A) (A) (A) (A) (A) (A) (A) (A)
                 (A) (A) (A) (A) (A) (A) (A) (A) (A) (A) (A) (A)
                 (A) (A) (A) (A) (A) (A) (A) (A) (A) (A) (A) (A)
                 (A) (A) (A) (A) (A) (A) (A) (A) (A) (A) (A) (A)
                 (A) (A) (A) (A) (A) (A) (A) (A) (A) (A) (A) (A)
                 (A) (A) (A) (A) (A) (A) (A) (A) (A) (A) (A) (A)
                 (A) (A) (A) (A) (A) (A) (A) (A) (A) (A) (A) (A)
                 (A) (A) (A) (A) (A) (A) (A) (A) (A) (A) (A) (A)
                 (A) (A) (A) (A) (A) (A) (A) (A) (A) (A) (A) (A)
                 (A) (A) (A) (A) (A) (A) (A) (A) (A) (A) (A) (A)
                 (A) (A) (A) (A) (A) (A) (A) (A) (A) (A) (A) (A)
                 (A) (A) (A) (A) (A) (A) (A) (A) (A) (A) (A) (A)
                 (A) (A) (A) (A) (A) (A) (A) (A) (A) (A) (A) (A)
                 (A) (A) (A) (A) (A) (A) (A) (A) (A) (A) (A) (A)
                 (A) (A) (A) (A) (A) (A) (A) (A) (A) (A) (A) (A)
                 (A) (A) (A) (A) (A) (A) (A) (A) (A) (A) (A) (A)
                 (A) (A) (A) (A) (A) (A) (A) (A) (A) (A) (A) (A)
                 (A) (A) (A) (A) (A) (A) (A) (A) (A) (A) (A) (A)
                 (A) (A) (A) (A) (A) (A) (A) (A) (A) (A) (A) (A)
                 (A) (A) (A) (A) (A) (A) (A) (A) (A) (A) (A) (A)
                 (A) (A) (A) (A) (A) (A) (A) (A) (A) (A) (A) (A)
                 (A) (A)
 The electronic state of the initial guess is 1-A.
 FoFJK:  IHMeth= 1 ICntrl=     0 DoSepK=T KAlg= 1 I1Cent= 0 FoldK=F
 Gradient too large for Newton-Raphson -- use scaled steepest descent instead.
 FoFJK:  IHMeth= 1 ICntrl=     0 DoSepK=T KAlg= 1 I1Cent= 0 FoldK=F
 FoFJK:  IHMeth= 1 ICntrl=     0 DoSepK=T KAlg= 1 I1Cent= 0 FoldK=F
 FoFJK:  IHMeth= 1 ICntrl=     0 DoSepK=T KAlg= 1 I1Cent= 0 FoldK=F
 FoFJK:  IHMeth= 1 ICntrl=     0 DoSepK=T KAlg= 1 I1Cent= 0 FoldK=F
 Gradient too large for Newton-Raphson -- use scaled steepest descent instead.
 FoFJK:  IHMeth= 1 ICntrl=     0 DoSepK=T KAlg= 1 I1Cent= 0 FoldK=F
 FoFJK:  IHMeth= 1 ICntrl=     0 DoSepK=T KAlg= 1 I1Cent= 0 FoldK=F
 FoFJK:  IHMeth= 1 ICntrl=     0 DoSepK=T KAlg= 1 I1Cent= 0 FoldK=F
 FoFJK:  IHMeth= 1 ICntrl=     0 DoSepK=T KAlg= 1 I1Cent= 0 FoldK=F
 Gradient too large for Newton-Raphson -- use scaled steepest descent instead.
 FoFJK:  IHMeth= 1 ICntrl=     0 DoSepK=T KAlg= 1 I1Cent= 0 FoldK=F
 FoFJK:  IHMeth= 1 ICntrl=     0 DoSepK=T KAlg= 1 I1Cent= 0 FoldK=F
 FoFJK:  IHMeth= 1 ICntrl=     0 DoSepK=T KAlg= 1 I1Cent= 0 FoldK=F
 Gradient too large for Newton-Raphson -- use scaled steepest descent instead.
 FoFJK:  IHMeth= 1 ICntrl=     0 DoSepK=T KAlg= 1 I1Cent= 0 FoldK=F
 FoFJK:  IHMeth= 1 ICntrl=     0 DoSepK=T KAlg= 1 I1Cent= 0 FoldK=F
 FoFJK:  IHMeth= 1 ICntrl=     0 DoSepK=T KAlg= 1 I1Cent= 0 FoldK=F
 FoFJK:  IHMeth= 1 ICntrl=     0 DoSepK=T KAlg= 1 I1Cent= 0 FoldK=F
 Gradient too large for Newton-Raphson -- use scaled steepest descent instead.
 FoFJK:  IHMeth= 1 ICntrl=     0 DoSepK=T KAlg= 1 I1Cent= 0 FoldK=F
 FoFJK:  IHMeth= 1 ICntrl=     0 DoSepK=T KAlg= 1 I1Cent= 0 FoldK=F
 FoFJK:  IHMeth= 1 ICntrl=     0 DoSepK=T KAlg= 1 I1Cent= 0 FoldK=F
 Gradient too large for Newton-Raphson -- use scaled steepest descent instead.
 FoFJK:  IHMeth= 1 ICntrl=     0 DoSepK=T KAlg= 1 I1Cent= 0 FoldK=F
 FoFJK:  IHMeth= 1 ICntrl=     0 DoSepK=T KAlg= 1 I1Cent= 0 FoldK=F
 FoFJK:  IHMeth= 1 ICntrl=     0 DoSepK=T KAlg= 1 I1Cent= 0 FoldK=F
 FoFJK:  IHMeth= 1 ICntrl=     0 DoSepK=T KAlg= 1 I1Cent= 0 FoldK=F
 LinEq1:  Iter=  0 NonCon=     1 RMS=5.54D-05 Max=2.95D-03
 AX will form     1 AO Fock derivatives at one time.
 FoFJK:  IHMeth= 1 ICntrl=     0 DoSepK=T KAlg= 1 I1Cent= 0 FoldK=F
 LinEq1:  Iter=  1 NonCon=     1 RMS=6.17D-05 Max=4.85D-03
 FoFJK:  IHMeth= 1 ICntrl=     0 DoSepK=T KAlg= 1 I1Cent= 0 FoldK=F
 LinEq1:  Iter=  2 NonCon=     1 RMS=2.08D-05 Max=1.42D-03
 FoFJK:  IHMeth= 1 ICntrl=     0 DoSepK=T KAlg= 1 I1Cent= 0 FoldK=F
 LinEq1:  Iter=  3 NonCon=     1 RMS=1.30D-05 Max=5.12D-04
 FoFJK:  IHMeth= 1 ICntrl=     0 DoSepK=T KAlg= 1 I1Cent= 0 FoldK=F
 LinEq1:  Iter=  4 NonCon=     1 RMS=2.22D-06 Max=1.41D-04
 FoFJK:  IHMeth= 1 ICntrl=     0 DoSepK=T KAlg= 1 I1Cent= 0 FoldK=F
 LinEq1:  Iter=  5 NonCon=     1 RMS=1.68D-06 Max=9.79D-05
 FoFJK:  IHMeth= 1 ICntrl=     0 DoSepK=T KAlg= 1 I1Cent= 0 FoldK=F
 LinEq1:  Iter=  6 NonCon=     1 RMS=3.62D-07 Max=1.12D-05
 FoFJK:  IHMeth= 1 ICntrl=     0 DoSepK=T KAlg= 1 I1Cent= 0 FoldK=F
 LinEq1:  Iter=  7 NonCon=     1 RMS=2.86D-07 Max=1.36D-05
 FoFJK:  IHMeth= 1 ICntrl=     0 DoSepK=T KAlg= 1 I1Cent= 0 FoldK=F
 LinEq1:  Iter=  8 NonCon=     1 RMS=7.19D-08 Max=3.31D-06
 FoFJK:  IHMeth= 1 ICntrl=     0 DoSepK=T KAlg= 1 I1Cent= 0 FoldK=F
 LinEq1:  Iter=  9 NonCon=     1 RMS=4.22D-08 Max=1.40D-06
 FoFJK:  IHMeth= 1 ICntrl=     0 DoSepK=T KAlg= 1 I1Cent= 0 FoldK=F
 LinEq1:  Iter= 10 NonCon=     1 RMS=1.91D-08 Max=1.37D-06
 FoFJK:  IHMeth= 1 ICntrl=     0 DoSepK=T KAlg= 1 I1Cent= 0 FoldK=F
 LinEq1:  Iter= 11 NonCon=     1 RMS=6.87D-09 Max=4.17D-07
 FoFJK:  IHMeth= 1 ICntrl=     0 DoSepK=T KAlg= 1 I1Cent= 0 FoldK=F
 LinEq1:  Iter= 12 NonCon=     0 RMS=3.79D-09 Max=1.56D-07
 Linear equations converged to 1.927D-08 1.927D-07 after    12 iterations.
 FoFJK:  IHMeth= 1 ICntrl=     0 DoSepK=T KAlg= 1 I1Cent= 0 FoldK=F
 FoFJK:  IHMeth= 1 ICntrl=     0 DoSepK=T KAlg= 1 I1Cent= 0 FoldK=F
 FoFJK:  IHMeth= 1 ICntrl=     0 DoSepK=T KAlg= 1 I1Cent= 0 FoldK=F
 LinEq1:  Iter=  0 NonCon=     1 RMS=2.81D-07 Max=1.31D-05
 FoFJK:  IHMeth= 1 ICntrl=     0 DoSepK=T KAlg= 1 I1Cent= 0 FoldK=F
 LinEq1:  Iter=  1 NonCon=     1 RMS=1.37D-07 Max=6.35D-06
 FoFJK:  IHMeth= 1 ICntrl=     0 DoSepK=T KAlg= 1 I1Cent= 0 FoldK=F
 LinEq1:  Iter=  2 NonCon=     1 RMS=3.80D-08 Max=1.60D-06
 FoFJK:  IHMeth= 1 ICntrl=     0 DoSepK=T KAlg= 1 I1Cent= 0 FoldK=F
 LinEq1:  Iter=  3 NonCon=     1 RMS=2.13D-08 Max=8.09D-07
 FoFJK:  IHMeth= 1 ICntrl=     0 DoSepK=T KAlg= 1 I1Cent= 0 FoldK=F
 LinEq1:  Iter=  4 NonCon=     1 RMS=1.71D-08 Max=1.27D-06
 FoFJK:  IHMeth= 1 ICntrl=     0 DoSepK=T KAlg= 1 I1Cent= 0 FoldK=F
 LinEq1:  Iter=  5 NonCon=     1 RMS=9.85D-09 Max=5.88D-07
 FoFJK:  IHMeth= 1 ICntrl=     0 DoSepK=T KAlg= 1 I1Cent= 0 FoldK=F
 LinEq1:  Iter=  6 NonCon=     1 RMS=8.41D-09 Max=4.31D-07
 FoFJK:  IHMeth= 1 ICntrl=     0 DoSepK=T KAlg= 1 I1Cent= 0 FoldK=F
 LinEq1:  Iter=  7 NonCon=     1 RMS=3.36D-09 Max=1.35D-07
 FoFJK:  IHMeth= 1 ICntrl=     0 DoSepK=T KAlg= 1 I1Cent= 0 FoldK=F
 LinEq1:  Iter=  8 NonCon=     1 RMS=2.37D-09 Max=1.25D-07
 FoFJK:  IHMeth= 1 ICntrl=     0 DoSepK=T KAlg= 1 I1Cent= 0 FoldK=F
 LinEq1:  Iter=  9 NonCon=     1 RMS=1.16D-09 Max=6.64D-08
 FoFJK:  IHMeth= 1 ICntrl=     0 DoSepK=T KAlg= 1 I1Cent= 0 FoldK=F
 LinEq1:  Iter= 10 NonCon=     1 RMS=5.35D-10 Max=1.81D-08
 FoFJK:  IHMeth= 1 ICntrl=     0 DoSepK=T KAlg= 1 I1Cent= 0 FoldK=F
 LinEq1:  Iter= 11 NonCon=     1 RMS=2.58D-10 Max=7.55D-09
 FoFJK:  IHMeth= 1 ICntrl=     0 DoSepK=T KAlg= 1 I1Cent= 0 FoldK=F
 LinEq1:  Iter= 12 NonCon=     0 RMS=1.08D-10 Max=2.90D-09
 Linear equations converged to 4.331D-10 4.331D-09 after    12 iterations.
 FoFJK:  IHMeth= 1 ICntrl=     0 DoSepK=T KAlg= 1 I1Cent= 0 FoldK=F
 SCF Done:  E(RCAM-B3LYP) =  -951.691858974     a.u. after    9 cycles
            Convg  =    0.3375D-08                    51 Fock formations.
              S**2 =  0.0000                  -V/T =  2.0021

 **********************************************************************

            Population analysis using the SCF density.

 **********************************************************************

 Orbital symmetries:
       Occupied  (A) (A) (A) (A) (A) (A) (A) (A) (A) (A) (A) (A)
                 (A) (A) (A) (A) (A) (A) (A) (A) (A) (A) (A) (A)
                 (A) (A) (A) (A) (A) (A) (A) (A) (A) (A) (A) (A)
                 (A) (A) (A) (A) (A) (A) (A) (A)
       Virtual   (A) (A) (A) (A) (A) (A) (A) (A) (A) (A) (A) (A)
                 (A) (A) (A) (A) (A) (A) (A) (A) (A) (A) (A) (A)
                 (A) (A) (A) (A) (A) (A) (A) (A) (A) (A) (A) (A)
                 (A) (A) (A) (A) (A) (A) (A) (A) (A) (A) (A) (A)
                 (A) (A) (A) (A) (A) (A) (A) (A) (A) (A) (A) (A)
                 (A) (A) (A) (A) (A) (A) (A) (A) (A) (A) (A) (A)
                 (A) (A) (A) (A) (A) (A) (A) (A) (A) (A) (A) (A)
                 (A) (A) (A) (A) (A) (A) (A) (A) (A) (A) (A) (A)
                 (A) (A) (A) (A) (A) (A) (A) (A) (A) (A) (A) (A)
                 (A) (A) (A) (A) (A) (A) (A) (A) (A) (A) (A) (A)
                 (A) (A) (A) (A) (A) (A) (A) (A) (A) (A) (A) (A)
                 (A) (A) (A) (A) (A) (A) (A) (A) (A) (A) (A) (A)
                 (A) (A) (A) (A) (A) (A) (A) (A) (A) (A) (A) (A)
                 (A) (A) (A) (A) (A) (A) (A) (A) (A) (A) (A) (A)
                 (A) (A) (A) (A) (A) (A) (A) (A) (A) (A) (A) (A)
                 (A) (A) (A) (A) (A) (A) (A) (A) (A) (A) (A) (A)
                 (A) (A) (A) (A) (A) (A) (A) (A) (A) (A) (A) (A)
                 (A) (A) (A) (A) (A) (A) (A) (A) (A) (A) (A) (A)
                 (A) (A) (A) (A) (A) (A) (A) (A) (A) (A) (A) (A)
                 (A) (A) (A) (A) (A) (A) (A) (A) (A) (A) (A) (A)
                 (A) (A) (A) (A) (A) (A) (A) (A) (A) (A) (A) (A)
                 (A) (A) (A) (A) (A) (A) (A) (A) (A) (A) (A) (A)
                 (A) (A) (A) (A) (A) (A) (A) (A) (A) (A) (A) (A)
                 (A) (A) (A) (A) (A) (A) (A) (A) (A) (A) (A) (A)
                 (A) (A) (A) (A) (A) (A) (A) (A) (A) (A) (A) (A)
                 (A) (A) (A) (A) (A) (A) (A) (A) (A) (A) (A) (A)
                 (A) (A) (A) (A) (A) (A) (A) (A) (A) (A) (A) (A)
                 (A) (A) (A) (A) (A) (A) (A) (A) (A) (A) (A) (A)
                 (A) (A) (A) (A) (A) (A) (A) (A) (A) (A) (A) (A)
                 (A) (A) (A) (A) (A) (A) (A) (A) (A) (A) (A) (A)
                 (A) (A) (A) (A) (A) (A) (A) (A) (A) (A) (A) (A)
                 (A) (A) (A) (A) (A) (A) (A) (A) (A) (A) (A) (A)
                 (A) (A) (A) (A) (A) (A) (A) (A) (A) (A) (A) (A)
                 (A) (A) (A) (A) (A) (A) (A) (A) (A) (A) (A) (A)
                 (A) (A) (A) (A) (A) (A) (A) (A) (A) (A) (A) (A)
                 (A) (A)
 The electronic state is 1-A.
 Alpha  occ. eigenvalues -- -101.61997 -19.22952 -19.22949 -14.63143 -14.42956
 Alpha  occ. eigenvalues --  -10.32801 -10.31235 -10.30687 -10.28141 -10.27950
 Alpha  occ. eigenvalues --  -10.27389  -9.55862  -7.32033  -7.31246  -7.31189
 Alpha  occ. eigenvalues --   -1.32234  -1.14236  -1.07482  -1.01509  -0.96912
 Alpha  occ. eigenvalues --   -0.88198  -0.84252  -0.78343  -0.72880  -0.67661
 Alpha  occ. eigenvalues --   -0.64602  -0.63722  -0.61963  -0.61893  -0.58778
 Alpha  occ. eigenvalues --   -0.55973  -0.54635  -0.53226  -0.53051  -0.50751
 Alpha  occ. eigenvalues --   -0.45207  -0.44494  -0.42039  -0.40612  -0.38120
 Alpha  occ. eigenvalues --   -0.37999  -0.36572  -0.32794  -0.29115
 Alpha virt. eigenvalues --   -0.04425   0.00142   0.01426   0.02974   0.03855
 Alpha virt. eigenvalues --    0.04869   0.05617   0.05967   0.06139   0.06987
 Alpha virt. eigenvalues --    0.08645   0.09173   0.10540   0.10545   0.11676
 Alpha virt. eigenvalues --    0.12517   0.13565   0.13964   0.14390   0.14430
 Alpha virt. eigenvalues --    0.15595   0.16466   0.17050   0.17726   0.19067
 Alpha virt. eigenvalues --    0.19133   0.19683   0.20396   0.20931   0.22040
 Alpha virt. eigenvalues --    0.22652   0.22846   0.23029   0.23534   0.24315
 Alpha virt. eigenvalues --    0.24497   0.24770   0.25529   0.25954   0.26661
 Alpha virt. eigenvalues --    0.27456   0.27879   0.28279   0.28585   0.28825
 Alpha virt. eigenvalues --    0.29595   0.29964   0.30377   0.31148   0.31609
 Alpha virt. eigenvalues --    0.31775   0.32633   0.32824   0.33042   0.34413
 Alpha virt. eigenvalues --    0.36057   0.36612   0.36674   0.37541   0.37687
 Alpha virt. eigenvalues --    0.38129   0.38698   0.39382   0.39755   0.39975
 Alpha virt. eigenvalues --    0.40549   0.41556   0.42735   0.43116   0.43866
 Alpha virt. eigenvalues --    0.44531   0.44738   0.44912   0.45404   0.45917
 Alpha virt. eigenvalues --    0.47063   0.47825   0.48409   0.49148   0.49353
 Alpha virt. eigenvalues --    0.50340   0.51083   0.51330   0.52099   0.52324
 Alpha virt. eigenvalues --    0.52811   0.53098   0.55350   0.55594   0.56428
 Alpha virt. eigenvalues --    0.56583   0.57268   0.58651   0.58722   0.59463
 Alpha virt. eigenvalues --    0.59955   0.60813   0.61128   0.61816   0.62427
 Alpha virt. eigenvalues --    0.62928   0.63618   0.64965   0.65355   0.65591
 Alpha virt. eigenvalues --    0.66374   0.66750   0.67019   0.67029   0.68124
 Alpha virt. eigenvalues --    0.68211   0.68973   0.69934   0.70558   0.71037
 Alpha virt. eigenvalues --    0.71720   0.72148   0.72833   0.73330   0.74306
 Alpha virt. eigenvalues --    0.75167   0.75972   0.76451   0.77638   0.77762
 Alpha virt. eigenvalues --    0.77898   0.79073   0.79710   0.80562   0.80834
 Alpha virt. eigenvalues --    0.81426   0.81991   0.83062   0.84196   0.85392
 Alpha virt. eigenvalues --    0.85887   0.86093   0.87321   0.87803   0.88389
 Alpha virt. eigenvalues --    0.89723   0.90977   0.91995   0.93914   0.94733
 Alpha virt. eigenvalues --    0.96111   0.97186   0.97913   0.99295   1.00818
 Alpha virt. eigenvalues --    1.01629   1.01890   1.02775   1.03492   1.04362
 Alpha virt. eigenvalues --    1.05282   1.05843   1.05972   1.08132   1.09980
 Alpha virt. eigenvalues --    1.11351   1.12507   1.13606   1.14966   1.16415
 Alpha virt. eigenvalues --    1.19414   1.20330   1.21964   1.24152   1.25339
 Alpha virt. eigenvalues --    1.28411   1.31070   1.31598   1.33760   1.35045
 Alpha virt. eigenvalues --    1.37026   1.37697   1.38573   1.41828   1.45331
 Alpha virt. eigenvalues --    1.46742   1.47663   1.48198   1.49882   1.50350
 Alpha virt. eigenvalues --    1.53645   1.54308   1.55761   1.56850   1.58862
 Alpha virt. eigenvalues --    1.60384   1.62616   1.64384   1.64528   1.68049
 Alpha virt. eigenvalues --    1.71601   1.72586   1.73353   1.73880   1.76982
 Alpha virt. eigenvalues --    1.78126   1.80417   1.81569   1.84296   1.85947
 Alpha virt. eigenvalues --    1.88988   1.90302   1.90564   1.91237   1.91510
 Alpha virt. eigenvalues --    1.92784   1.94507   1.96019   1.96871   1.99007
 Alpha virt. eigenvalues --    1.99343   1.99912   2.00836   2.01749   2.02881
 Alpha virt. eigenvalues --    2.04127   2.05510   2.06526   2.10213   2.11015
 Alpha virt. eigenvalues --    2.11561   2.15170   2.16865   2.19147   2.19843
 Alpha virt. eigenvalues --    2.20597   2.21314   2.23764   2.28367   2.29633
 Alpha virt. eigenvalues --    2.31320   2.32595   2.32834   2.34100   2.36263
 Alpha virt. eigenvalues --    2.38113   2.39476   2.40158   2.42663   2.44064
 Alpha virt. eigenvalues --    2.44657   2.45971   2.47937   2.50433   2.55575
 Alpha virt. eigenvalues --    2.57306   2.60659   2.60889   2.62911   2.66027
 Alpha virt. eigenvalues --    2.67282   2.68126   2.68843   2.72183   2.73179
 Alpha virt. eigenvalues --    2.73445   2.75044   2.78397   2.82691   2.85075
 Alpha virt. eigenvalues --    2.85423   2.86176   2.86982   2.88712   2.91171
 Alpha virt. eigenvalues --    2.92020   2.92764   2.95192   2.96854   2.98418
 Alpha virt. eigenvalues --    3.00368   3.00979   3.04159   3.04917   3.08803
 Alpha virt. eigenvalues --    3.09747   3.12494   3.13562   3.13764   3.15238
 Alpha virt. eigenvalues --    3.15640   3.18431   3.21953   3.23974   3.25768
 Alpha virt. eigenvalues --    3.27571   3.28321   3.30334   3.33001   3.34232
 Alpha virt. eigenvalues --    3.34633   3.36924   3.38089   3.39482   3.41036
 Alpha virt. eigenvalues --    3.42521   3.44680   3.47981   3.48378   3.49479
 Alpha virt. eigenvalues --    3.49580   3.50100   3.50962   3.53643   3.57133
 Alpha virt. eigenvalues --    3.58140   3.59361   3.60405   3.61725   3.63352
 Alpha virt. eigenvalues --    3.64411   3.65895   3.67488   3.71297   3.73096
 Alpha virt. eigenvalues --    3.75550   3.77027   3.79195   3.81742   3.86782
 Alpha virt. eigenvalues --    3.89661   3.93984   3.96837   3.99446   4.03896
 Alpha virt. eigenvalues --    4.07697   4.10047   4.13454   4.17138   4.18551
 Alpha virt. eigenvalues --    4.21728   4.22383   4.25747   4.26462   4.29306
 Alpha virt. eigenvalues --    4.31116   4.33491   4.35220   4.36099   4.36458
 Alpha virt. eigenvalues --    4.39518   4.44866   4.49001   4.52898   4.58793
 Alpha virt. eigenvalues --    4.66010   4.69081   4.73295   4.74967   4.78163
 Alpha virt. eigenvalues --    4.78916   4.81802   4.83476   4.87587   4.89381
 Alpha virt. eigenvalues --    4.92746   4.93649   4.96569   4.97717   5.00166
 Alpha virt. eigenvalues --    5.04485   5.09132   5.13591   5.15154   5.20858
 Alpha virt. eigenvalues --    5.21022   5.24019   5.25760   5.28192   5.30611
 Alpha virt. eigenvalues --    5.35531   5.40919   5.41770   5.45293   5.48026
 Alpha virt. eigenvalues --    5.50602   5.54316   5.56086   5.64403   5.70269
 Alpha virt. eigenvalues --    5.72289   5.72728   5.75991   5.81438   5.97351
 Alpha virt. eigenvalues --    6.09130   6.11718   6.16645   6.45305   6.46429
 Alpha virt. eigenvalues --    6.53448   6.60150   6.61899   6.64148   6.96312
 Alpha virt. eigenvalues --    6.96373   6.99616   7.13862   7.32827   7.47054
 Alpha virt. eigenvalues --    7.58349   7.79568   7.82626  11.04747  11.19699
 Alpha virt. eigenvalues --   11.65924  22.70037  22.94324  23.01078  23.09203
 Alpha virt. eigenvalues --   23.23031  23.53285  27.76651  32.46646  32.87844
 Alpha virt. eigenvalues --   44.47703  44.66752
          Condensed to atoms (all electrons):
              1          2          3          4          5          6
     1  C    7.904171   0.377760  -0.605414  -0.172542  -1.153493   0.147580
     2  C    0.377760   6.202796   0.525838  -0.262701  -0.179408  -0.523823
     3  C   -0.605414   0.525838   6.487961   0.280250  -0.168081  -0.174991
     4  C   -0.172542  -0.262701   0.280250   7.136670  -0.000239  -0.720312
     5  C   -1.153493  -0.179408  -0.168081  -0.000239   7.546569  -0.168731
     6  C    0.147580  -0.523823  -0.174991  -0.720312  -0.168731   6.522985
     7  H    0.282438  -0.041511   0.003906  -0.001039   0.004694  -0.098003
     8  H    0.005947  -0.072333   0.310504  -0.073212  -0.003572  -0.010924
     9  H   -0.010020   0.017915  -0.039239   0.472539  -0.228197  -0.016582
    10  N   -0.257764   0.527314  -0.146168   0.009491   0.014306  -0.038104
    11  O    0.033737  -0.077274  -0.017297   0.007122  -0.009296  -0.000242
    12  O   -0.021802  -0.065810   0.023052  -0.004383  -0.005815   0.022121
    13  N    0.024265   0.013402  -0.012660  -0.105230   0.146122   0.048025
    14  H   -0.009021   0.004229   0.004974   0.033585  -0.063597  -0.045734
    15  H    0.024968   0.002016  -0.004875  -0.023496  -0.081223  -0.001111
    16  Cl  -0.158486  -0.096580  -0.016584  -0.000591  -0.012965   0.187529
              7          8          9         10         11         12
     1  C    0.282438   0.005947  -0.010020  -0.257764   0.033737  -0.021802
     2  C   -0.041511  -0.072333   0.017915   0.527314  -0.077274  -0.065810
     3  C    0.003906   0.310504  -0.039239  -0.146168  -0.017297   0.023052
     4  C   -0.001039  -0.073212   0.472539   0.009491   0.007122  -0.004383
     5  C    0.004694  -0.003572  -0.228197   0.014306  -0.009296  -0.005815
     6  C   -0.098003  -0.010924  -0.016582  -0.038104  -0.000242   0.022121
     7  H    0.379989   0.001238  -0.000392  -0.006599  -0.001616  -0.003213
     8  H    0.001238   0.401022  -0.008018   0.004555   0.006205  -0.003092
     9  H   -0.000392  -0.008018   0.536296  -0.000784   0.000014   0.000132
    10  N   -0.006599   0.004555  -0.000784   5.806807   0.093154   0.092070
    11  O   -0.001616   0.006205   0.000014   0.093154   8.662002  -0.111451
    12  O   -0.003213  -0.003092   0.000132   0.092070  -0.111451   8.666691
    13  N    0.001184  -0.000353   0.011928  -0.000103   0.000109   0.000116
    14  H   -0.000146  -0.000210   0.023034  -0.000061   0.000027   0.000002
    15  H   -0.000385   0.000090  -0.004392   0.000075  -0.000003  -0.000016
    16  Cl  -0.004525   0.000884  -0.001728  -0.003911   0.000333   0.000350
             13         14         15         16
     1  C    0.024265  -0.009021   0.024968  -0.158486
     2  C    0.013402   0.004229   0.002016  -0.096580
     3  C   -0.012660   0.004974  -0.004875  -0.016584
     4  C   -0.105230   0.033585  -0.023496  -0.000591
     5  C    0.146122  -0.063597  -0.081223  -0.012965
     6  C    0.048025  -0.045734  -0.001111   0.187529
     7  H    0.001184  -0.000146  -0.000385  -0.004525
     8  H   -0.000353  -0.000210   0.000090   0.000884
     9  H    0.011928   0.023034  -0.004392  -0.001728
    10  N   -0.000103  -0.000061   0.000075  -0.003911
    11  O    0.000109   0.000027  -0.000003   0.000333
    12  O    0.000116   0.000002  -0.000016   0.000350
    13  N    6.566718   0.359063   0.378344  -0.029242
    14  H    0.359063   0.531892  -0.037869  -0.001057
    15  H    0.378344  -0.037869   0.503754   0.058345
    16  Cl  -0.029242  -0.001057   0.058345  17.409200
 Mulliken atomic charges:
              1
     1  C   -0.412324
     2  C   -0.351830
     3  C   -0.451176
     4  C   -0.575912
     5  C    0.362925
     6  C    0.870317
     7  H    0.483980
     8  H    0.441269
     9  H    0.247496
    10  N    0.905722
    11  O   -0.585522
    12  O   -0.588951
    13  N   -0.401688
    14  H    0.200888
    15  H    0.185778
    16  Cl  -0.330971
 Sum of Mulliken atomic charges =   0.00000
 Mulliken charges with hydrogens summed into heavy atoms:
              1
     1  C    0.071656
     2  C   -0.351830
     3  C   -0.009907
     4  C   -0.328416
     5  C    0.362925
     6  C    0.870317
    10  N    0.905722
    11  O   -0.585522
    12  O   -0.588951
    13  N   -0.015023
    16  Cl  -0.330971
 Sum of Mulliken charges with hydrogens summed into heavy atoms =   0.00000
 Electronic spatial extent (au):  <R**2>=           2083.9808
 Charge=              0.0000 electrons
 Dipole moment (field-independent basis, Debye):
    X=              5.9489    Y=              2.5357    Z=              0.5510  Tot=              6.4902
 Quadrupole moment (field-independent basis, Debye-Ang):
   XX=            -77.4225   YY=            -64.3366   ZZ=            -71.2222
   XY=              1.9557   XZ=              2.1143   YZ=              0.9498
 Traceless Quadrupole moment (field-independent basis, Debye-Ang):
   XX=             -6.4287   YY=              6.6571   ZZ=             -0.2284
   XY=              1.9557   XZ=              2.1143   YZ=              0.9498
 Octapole moment (field-independent basis, Debye-Ang**2):
  XXX=             93.3673  YYY=             13.8213  ZZZ=              0.3657  XYY=             16.9371
  XXY=             17.6024  XXZ=              7.2710  XZZ=             -8.2273  YZZ=             -6.0682
  YYZ=              1.7439  XYZ=              3.2916
 Hexadecapole moment (field-independent basis, Debye-Ang**3):
 XXXX=          -1954.2047 YYYY=           -626.4064 ZZZZ=            -75.8695 XXXY=             25.6617
 XXXZ=             26.0786 YYYX=             15.8777 YYYZ=              4.2820 ZZZX=              1.2316
 ZZZY=              0.8520 XXYY=           -408.7969 XXZZ=           -326.7841 YYZZ=           -136.2384
 XXYZ=             10.8726 YYXZ=              6.1137 ZZXY=             -1.8011
 N-N= 6.795647077719D+02 E-N=-3.602171460271D+03  KE= 9.496816007657D+02
 Calling FoFJK, ICntrl=      2127 FMM=F ISym2X=0 I1Cent= 0 IOpClX= 0 NMat=1 NMatS=1 NMatT=0.
 FoFJK:  IHMeth= 1 ICntrl=  2127 DoSepK=T KAlg= 1 I1Cent= 0 FoldK=F
 ***** Axes restored to original set *****
 -------------------------------------------------------------------
 Center     Atomic                   Forces (Hartrees/Bohr)
 Number     Number              X              Y              Z
 -------------------------------------------------------------------
      1        6           0.017718088   -0.015622672   -0.000002035
      2        6           0.001073497    0.004388558   -0.000013030
      3        6          -0.001147684   -0.001116543    0.000005161
      4        6          -0.001799263   -0.002509830    0.000045068
      5        6           0.008485446   -0.015917416   -0.000202163
      6        6           0.065845941   -0.085604149   -0.000498591
      7        1           0.000245617   -0.000763873   -0.000000323
      8        1          -0.000011439   -0.000057629   -0.000009201
      9        1           0.000641872   -0.000560646   -0.000004163
     10        7          -0.000211001   -0.000805498   -0.000008389
     11        8           0.000590909   -0.000069783    0.000005317
     12        8           0.000269784    0.000090426   -0.000000601
     13        7           0.002006410   -0.004581491    0.000488460
     14        1           0.000443670   -0.000562207   -0.000399806
     15        1          -0.000569761   -0.001015572    0.000156292
     16       17          -0.093582088    0.124708325    0.000438005
 -------------------------------------------------------------------
 Cartesian Forces:  Max     0.124708325 RMS     0.027733742

 GradGradGradGradGradGradGradGradGradGradGradGradGradGradGradGradGradGrad
 Berny optimization.
 Internal  Forces:  Max     0.155772417 RMS     0.019205090
 Search for a local minimum.
 Step number   1 out of a maximum of   82
 All quantities printed in internal units (Hartrees-Bohrs-Radians)
 Mixed Optimization -- RFO/linear search
 Second derivative matrix not updated -- first step.
     Eigenvalues ---    0.00943   0.00943   0.01894   0.02142   0.02162
     Eigenvalues ---    0.02195   0.02256   0.02304   0.02347   0.02352
     Eigenvalues ---    0.02372   0.02436   0.03045   0.16000   0.16000
     Eigenvalues ---    0.16000   0.16000   0.16000   0.22375   0.23499
     Eigenvalues ---    0.24613   0.24987   0.25000   0.25000   0.25000
     Eigenvalues ---    0.25000   0.35740   0.36093   0.36114   0.37395
     Eigenvalues ---    0.42967   0.43893   0.46878   0.47031   0.47165
     Eigenvalues ---    0.47517   0.48823   0.51195   0.52064   0.64821
     Eigenvalues ---    0.97553   0.977211000.000001000.000001000.00000
     Eigenvalues --- 1000.000001000.000001000.000001000.000001000.00000
     Eigenvalues --- 1000.000001000.000001000.000001000.000001000.00000
     Eigenvalues --- 1000.000001000.000001000.000001000.000001000.00000
     Eigenvalues --- 1000.000001000.000001000.000001000.000001000.00000
     Eigenvalues --- 1000.000001000.000001000.000001000.000001000.00000
     Eigenvalues --- 1000.000001000.00000
 RFO step:  Lambda=-4.16839548D-02 EMin= 9.43230889D-03
 Linear search not attempted -- first point.
 Iteration  1 RMS(Cart)=  0.05247718 RMS(Int)=  0.00299028
 Iteration  2 RMS(Cart)=  0.00326130 RMS(Int)=  0.00012587
 Iteration  3 RMS(Cart)=  0.00000807 RMS(Int)=  0.00012580
 Iteration  4 RMS(Cart)=  0.00000000 RMS(Int)=  0.00012580
 Variable       Old X    -DE/DX   Delta X   Delta X   Delta X     New X
                                 (Linear)    (Quad)   (Total)
    R1        2.61970  -0.00164   0.00000  -0.00360  -0.00358   2.61612
    R2        2.57948   0.01916   0.00000   0.03563   0.03586   2.61534
    R3        2.03937  -0.00062   0.00000  -0.00154  -0.00154   2.03783
    R4        2.61147  -0.00161   0.00000  -0.00500  -0.00521   2.60626
    R5        2.75255   0.00053   0.00000   0.00127   0.00127   2.75382
    R6        2.60464  -0.00315   0.00000  -0.00740  -0.00764   2.59700
    R7        2.03903   0.00004   0.00000   0.00009   0.00009   2.03912
    R8        2.63780   0.00158   0.00000   0.00352   0.00349   2.64130
    R9        2.04489   0.00028   0.00000   0.00071   0.00071   2.04560
   R10        2.64010   0.02251   0.00000   0.04687   0.04708   2.68719
   R11        2.57838  -0.00121   0.00000  -0.00215  -0.00215   2.57623
   R12        2.91018   0.15577   0.00000   0.22579   0.22579   3.13597
   R13        2.29566   0.00040   0.00000   0.00040   0.00040   2.29605
   R14        2.29635   0.00018   0.00000   0.00017   0.00017   2.29652
   R15        1.89686   0.00024   0.00000   0.00046   0.00046   1.89732
   R16        1.89854  -0.00046   0.00000  -0.00090  -0.00090   1.89764
    A1        2.05561   0.01039   0.00000   0.04124   0.04150   2.09711
    A2        2.11429  -0.00571   0.00000  -0.02319  -0.02332   2.09097
    A3        2.11329  -0.00467   0.00000  -0.01805  -0.01818   2.09511
    A4        2.11906   0.00168   0.00000   0.00071   0.00052   2.11957
    A5        2.07534   0.00012   0.00000   0.00292   0.00301   2.07835
    A6        2.08879  -0.00179   0.00000  -0.00362  -0.00353   2.08526
    A7        2.08509   0.00026   0.00000  -0.00700  -0.00745   2.07764
    A8        2.08356  -0.00008   0.00000   0.00373   0.00395   2.08751
    A9        2.11454  -0.00017   0.00000   0.00327   0.00350   2.11804
   A10        2.11228   0.00288   0.00000   0.00786   0.00760   2.11988
   A11        2.09263  -0.00226   0.00000  -0.00801  -0.00787   2.08475
   A12        2.07827  -0.00062   0.00000   0.00015   0.00028   2.07855
   A13        2.04332   0.00721   0.00000   0.02843   0.02862   2.07194
   A14        2.14627  -0.01330   0.00000  -0.04746  -0.04756   2.09871
   A15        2.09318   0.00609   0.00000   0.01903   0.01894   2.11212
   A16        2.15101  -0.02241   0.00000  -0.07124  -0.07078   2.08023
   A17        2.09152   0.00146   0.00000   0.00223   0.00200   2.09352
   A18        2.04064   0.02094   0.00000   0.06902   0.06879   2.10943
   A19        2.05645   0.00050   0.00000   0.00170   0.00170   2.05815
   A20        2.05546   0.00001   0.00000   0.00003   0.00003   2.05549
   A21        2.17128  -0.00051   0.00000  -0.00173  -0.00173   2.16955
   A22        2.07402  -0.00127   0.00000  -0.00599  -0.00599   2.06803
   A23        2.06480   0.00169   0.00000   0.00870   0.00870   2.07350
   A24        2.03360  -0.00026   0.00000  -0.00093  -0.00093   2.03267
    D1       -0.00159   0.00002   0.00000   0.00030   0.00029  -0.00130
    D2       -3.14090  -0.00001   0.00000  -0.00010  -0.00010  -3.14100
    D3        3.13744   0.00010   0.00000   0.00109   0.00107   3.13851
    D4       -0.00187   0.00007   0.00000   0.00069   0.00068  -0.00119
    D5       -0.00064   0.00004   0.00000  -0.00002  -0.00002  -0.00066
    D6        3.13564   0.00028   0.00000   0.00317   0.00312   3.13876
    D7       -3.13967  -0.00004   0.00000  -0.00080  -0.00079  -3.14046
    D8       -0.00340   0.00020   0.00000   0.00239   0.00235  -0.00105
    D9        0.00202  -0.00002   0.00000  -0.00015  -0.00015   0.00188
   D10       -3.14019  -0.00001   0.00000  -0.00026  -0.00026  -3.14045
   D11        3.14132   0.00001   0.00000   0.00026   0.00025   3.14157
   D12       -0.00090   0.00002   0.00000   0.00015   0.00014  -0.00075
   D13        3.13907   0.00001   0.00000   0.00012   0.00011   3.13918
   D14       -0.00228   0.00002   0.00000   0.00018   0.00018  -0.00210
   D15       -0.00028  -0.00002   0.00000  -0.00028  -0.00028  -0.00055
   D16        3.14156  -0.00002   0.00000  -0.00021  -0.00021   3.14135
   D17       -0.00023  -0.00001   0.00000  -0.00026  -0.00025  -0.00048
   D18        3.13658   0.00005   0.00000   0.00018   0.00017   3.13675
   D19       -3.14119  -0.00002   0.00000  -0.00015  -0.00014  -3.14132
   D20       -0.00438   0.00004   0.00000   0.00029   0.00028  -0.00410
   D21       -0.00185   0.00003   0.00000   0.00042   0.00042  -0.00143
   D22        3.10883   0.00016   0.00000   0.00096   0.00093   3.10976
   D23       -3.13870  -0.00002   0.00000   0.00002   0.00002  -3.13867
   D24       -0.02802   0.00011   0.00000   0.00055   0.00054  -0.02748
   D25        0.00232  -0.00007   0.00000  -0.00035  -0.00034   0.00198
   D26       -3.13410  -0.00025   0.00000  -0.00328  -0.00332  -3.13741
   D27       -3.10934   0.00017   0.00000   0.00038   0.00038  -3.10897
   D28        0.03742  -0.00001   0.00000  -0.00255  -0.00260   0.03483
   D29        0.29348  -0.00059   0.00000  -0.00831  -0.00831   0.28517
   D30        2.93035  -0.00034   0.00000  -0.00480  -0.00480   2.92555
   D31       -2.87987  -0.00045   0.00000  -0.00765  -0.00766  -2.88753
   D32       -0.24301  -0.00020   0.00000  -0.00414  -0.00415  -0.24715
         Item               Value     Threshold  Converged?
 Maximum Force            0.155772     0.000015     NO 
 RMS     Force            0.019205     0.000010     NO 
 Maximum Displacement     0.358643     0.000060     NO 
 RMS     Displacement     0.054864     0.000040     NO 
 Predicted change in Energy=-2.231569D-02
 GradGradGradGradGradGradGradGradGradGradGradGradGradGradGradGradGradGrad

                          Input orientation:                          
 ---------------------------------------------------------------------
 Center     Atomic      Atomic             Coordinates (Angstroms)
 Number     Number       Type             X           Y           Z
 ---------------------------------------------------------------------
      1          6           0       -1.215284   -0.192951   -0.000226
      2          6           0       -0.380711   -1.297495    0.000995
      3          6           0       -0.885807   -2.580846    0.002472
      4          6           0       -2.248145   -2.761569    0.000478
      5          6           0       -3.128068   -1.675598   -0.002435
      6          6           0       -2.589182   -0.359666   -0.001542
      7          1           0       -0.791813    0.798794    0.001517
      8          1           0       -0.208038   -3.420482    0.004474
      9          1           0       -2.651736   -3.765999   -0.002943
     10          7           0        1.062390   -1.094847    0.003118
     11          8           0        1.775128   -2.078849    0.006745
     12          8           0        1.473596    0.048735    0.001472
     13          7           0       -4.474886   -1.883121   -0.041852
     14          1           0       -4.825269   -2.797441    0.180188
     15          1           0       -5.089063   -1.110966    0.145107
     16         17           0       -3.584847    0.967939    0.001072
 ---------------------------------------------------------------------
                    Distance matrix (angstroms):
                    1          2          3          4          5
     1  C    0.000000
     2  C    1.384389   0.000000
     3  C    2.410520   1.379172   0.000000
     4  C    2.768501   2.372936   1.374274   0.000000
     5  C    2.420122   2.773256   2.418106   1.397714   0.000000
     6  C    1.383977   2.399349   2.799133   2.425994   1.421997
     7  H    1.078374   2.136220   3.380947   3.846698   3.403046
     8  H    3.381054   2.130001   1.079057   2.143880   3.401653
     9  H    3.850983   3.354263   2.126763   1.082486   2.143984
    10  N    2.449740   1.457261   2.450237   3.706428   4.230513
    11  O    3.535425   2.293074   2.707876   4.080793   4.919759
    12  O    2.699721   2.291460   3.532914   4.663600   4.914128
    13  N    3.671977   4.136069   3.656539   2.394126   1.363282
    14  H    4.455099   4.694257   3.949412   2.583631   2.042639
    15  H    3.983721   4.714249   4.455138   3.288802   2.045991
    16  Cl   2.638654   3.924115   4.458553   3.961817   2.682712
                    6          7          8          9         10
     6  C    0.000000
     7  H    2.138358   0.000000
     8  H    3.877948   4.259472   0.000000
     9  H    3.406907   4.929165   2.468015   0.000000
    10  N    3.724848   2.650273   2.650013   4.574912   0.000000
    11  O    4.690721   3.856170   2.394354   4.737477   1.215019
    12  O    4.083255   2.386351   3.855304   5.618770   1.215266
    13  N    2.424545   4.556268   4.535595   2.621187   5.593284
    14  H    3.312983   5.406810   4.662389   2.386605   6.131452
    15  H    2.614452   4.704695   5.401671   3.607170   6.153112
    16  Cl   1.659484   2.798151   5.537246   4.825026   5.084476
                   11         12         13         14         15
    11  O    0.000000
    12  O    2.148852   0.000000
    13  N    6.253267   6.254470   0.000000
    14  H    6.641664   6.914359   1.004017   0.000000
    15  H    6.933474   6.665885   1.004186   1.707342   0.000000
    16  Cl   6.165410   5.141283   2.987064   3.968477   2.570069
                   16
    16  Cl   0.000000
 Stoichiometry    C6H5ClN2O2
 Framework group  C1[X(C6H5ClN2O2)]
 Deg. of freedom    42
 Full point group                 C1      NOp   1
 Largest Abelian subgroup         C1      NOp   1
 Largest concise Abelian subgroup C1      NOp   1
                         Standard orientation:                         
 ---------------------------------------------------------------------
 Center     Atomic      Atomic             Coordinates (Angstroms)
 Number     Number       Type             X           Y           Z
 ---------------------------------------------------------------------
      1          6           0       -0.184728   -0.806570   -0.001187
      2          6           0       -1.195749    0.139141   -0.000893
      3          6           0       -0.917350    1.489921   -0.000469
      4          6           0        0.394079    1.900750   -0.002590
      5          6           0        1.446610    0.981086   -0.004591
      6          6           0        1.140484   -0.407567   -0.002618
      7          1           0       -0.432526   -1.856083    0.001370
      8          1           0       -1.728610    2.201411    0.000827
      9          1           0        0.620123    2.959363   -0.006835
     10          7           0       -2.583006   -0.307089    0.001374
     11          8           0       -3.453389    0.540671    0.004176
     12          8           0       -2.792778   -1.504114    0.000667
     13          7           0        2.738174    1.415639   -0.044157
     14          1           0        2.927151    2.376560    0.177132
     15          1           0        3.475217    0.759926    0.143450
     16         17           0        2.348338   -1.545532    0.001110
 ---------------------------------------------------------------------
 Rotational constants (GHZ):      1.8839565      0.6303660      0.4723954
 Basis read from rwf:  (5D, 7F)
 There are   467 symmetry adapted basis functions of A   symmetry.
 Integral buffers will be    131072 words long.
 Raffenetti 2 integral format.
 Two-electron integral symmetry is turned on.
   467 basis functions,   720 primitive gaussians,   533 cartesian basis functions
    44 alpha electrons       44 beta electrons
       nuclear repulsion energy       669.2704969520 Hartrees.
 NAtoms=   16 NActive=   16 NUniq=   16 SFac= 7.50D-01 NAtFMM=   80 NAOKFM=F Big=F
 One-electron integrals computed using PRISM.
 NBasis=   467 RedAO= T  NBF=   467
 NBsUse=   466 1.00D-06 NBFU=   466
 Initial guess read from the read-write file.
 B after Tr=     0.000000    0.000000    0.000000
         Rot=    1.000000    0.000000    0.000000    0.000000 Ang=   0.00 deg.
 Initial guess orbital symmetries:
       Occupied  (A) (A) (A) (A) (A) (A) (A) (A) (A) (A) (A) (A)
                 (A) (A) (A) (A) (A) (A) (A) (A) (A) (A) (A) (A)
                 (A) (A) (A) (A) (A) (A) (A) (A) (A) (A) (A) (A)
                 (A) (A) (A) (A) (A) (A) (A) (A)
       Virtual   (A) (A) (A) (A) (A) (A) (A) (A) (A) (A) (A) (A)
                 (A) (A) (A) (A) (A) (A) (A) (A) (A) (A) (A) (A)
                 (A) (A) (A) (A) (A) (A) (A) (A) (A) (A) (A) (A)
                 (A) (A) (A) (A) (A) (A) (A) (A) (A) (A) (A) (A)
                 (A) (A) (A) (A) (A) (A) (A) (A) (A) (A) (A) (A)
                 (A) (A) (A) (A) (A) (A) (A) (A) (A) (A) (A) (A)
                 (A) (A) (A) (A) (A) (A) (A) (A) (A) (A) (A) (A)
                 (A) (A) (A) (A) (A) (A) (A) (A) (A) (A) (A) (A)
                 (A) (A) (A) (A) (A) (A) (A) (A) (A) (A) (A) (A)
                 (A) (A) (A) (A) (A) (A) (A) (A) (A) (A) (A) (A)
                 (A) (A) (A) (A) (A) (A) (A) (A) (A) (A) (A) (A)
                 (A) (A) (A) (A) (A) (A) (A) (A) (A) (A) (A) (A)
                 (A) (A) (A) (A) (A) (A) (A) (A) (A) (A) (A) (A)
                 (A) (A) (A) (A) (A) (A) (A) (A) (A) (A) (A) (A)
                 (A) (A) (A) (A) (A) (A) (A) (A) (A) (A) (A) (A)
                 (A) (A) (A) (A) (A) (A) (A) (A) (A) (A) (A) (A)
                 (A) (A) (A) (A) (A) (A) (A) (A) (A) (A) (A) (A)
                 (A) (A) (A) (A) (A) (A) (A) (A) (A) (A) (A) (A)
                 (A) (A) (A) (A) (A) (A) (A) (A) (A) (A) (A) (A)
                 (A) (A) (A) (A) (A) (A) (A) (A) (A) (A) (A) (A)
                 (A) (A) (A) (A) (A) (A) (A) (A) (A) (A) (A) (A)
                 (A) (A) (A) (A) (A) (A) (A) (A) (A) (A) (A) (A)
                 (A) (A) (A) (A) (A) (A) (A) (A) (A) (A) (A) (A)
                 (A) (A) (A) (A) (A) (A) (A) (A) (A) (A) (A) (A)
                 (A) (A) (A) (A) (A) (A) (A) (A) (A) (A) (A) (A)
                 (A) (A) (A) (A) (A) (A) (A) (A) (A) (A) (A) (A)
                 (A) (A) (A) (A) (A) (A) (A) (A) (A) (A) (A) (A)
                 (A) (A) (A) (A) (A) (A) (A) (A) (A) (A) (A) (A)
                 (A) (A) (A) (A) (A) (A) (A) (A) (A) (A) (A) (A)
                 (A) (A) (A) (A) (A) (A) (A) (A) (A) (A) (A) (A)
                 (A) (A) (A) (A) (A) (A) (A) (A) (A) (A) (A) (A)
                 (A) (A) (A) (A) (A) (A) (A) (A) (A) (A) (A) (A)
                 (A) (A) (A) (A) (A) (A) (A) (A) (A) (A) (A) (A)
                 (A) (A) (A) (A) (A) (A) (A) (A) (A) (A) (A) (A)
                 (A) (A) (A) (A) (A) (A) (A) (A) (A) (A) (A) (A)
                 (A) (A)
 Harris functional with IExCor=20419 diagonalized for initial guess.
 ExpMin= 3.54D-02 ExpMax= 6.95D+04 ExpMxC= 2.37D+03 IAcc=3 IRadAn=         5 AccDes= 0.00D+00
 HarFok:  IExCor=20419 AccDes= 0.00D+00 IRadAn=         5 IDoV= 1
 ScaDFX=  1.000000  1.000000  1.000000  1.000000
 FoFCou: FMM=F IPFlag=           0 FMFlag=      100000 FMFlg1=           0
         NFxFlg=           0 DoJE=T BraDBF=F KetDBF=T FulRan=T
         Omega=  0.000000  0.000000  1.000000  0.000000  0.000000 ICntrl=     500 IOpCl=  0
         NMat0=    1 NMatS0=    1 NMatT0=    0 NMatD0=    1 NMtDS0=    0 NMtDT0=    0
         I1Cent=           4 NGrid=           0.
 Petite list used in FoFCou.
 FoFJK:  IHMeth= 1 ICntrl=     0 DoSepK=T KAlg= 1 I1Cent= 0 FoldK=F
 Gradient too large for Newton-Raphson -- use scaled steepest descent instead.
 FoFJK:  IHMeth= 1 ICntrl=     0 DoSepK=T KAlg= 1 I1Cent= 0 FoldK=F
 FoFJK:  IHMeth= 1 ICntrl=     0 DoSepK=T KAlg= 1 I1Cent= 0 FoldK=F
 FoFJK:  IHMeth= 1 ICntrl=     0 DoSepK=T KAlg= 1 I1Cent= 0 FoldK=F
 FoFJK:  IHMeth= 1 ICntrl=     0 DoSepK=T KAlg= 1 I1Cent= 0 FoldK=F
 FoFJK:  IHMeth= 1 ICntrl=     0 DoSepK=T KAlg= 1 I1Cent= 0 FoldK=F
 FoFJK:  IHMeth= 1 ICntrl=     0 DoSepK=T KAlg= 1 I1Cent= 0 FoldK=F
 Gradient too large for Newton-Raphson -- use scaled steepest descent instead.
 FoFJK:  IHMeth= 1 ICntrl=     0 DoSepK=T KAlg= 1 I1Cent= 0 FoldK=F
 FoFJK:  IHMeth= 1 ICntrl=     0 DoSepK=T KAlg= 1 I1Cent= 0 FoldK=F
 FoFJK:  IHMeth= 1 ICntrl=     0 DoSepK=T KAlg= 1 I1Cent= 0 FoldK=F
 Gradient too large for Newton-Raphson -- use scaled steepest descent instead.
 FoFJK:  IHMeth= 1 ICntrl=     0 DoSepK=T KAlg= 1 I1Cent= 0 FoldK=F
 FoFJK:  IHMeth= 1 ICntrl=     0 DoSepK=T KAlg= 1 I1Cent= 0 FoldK=F
 FoFJK:  IHMeth= 1 ICntrl=     0 DoSepK=T KAlg= 1 I1Cent= 0 FoldK=F
 FoFJK:  IHMeth= 1 ICntrl=     0 DoSepK=T KAlg= 1 I1Cent= 0 FoldK=F
 LinEq1:  Iter=  0 NonCon=     1 RMS=5.36D-05 Max=3.92D-03
 AX will form     1 AO Fock derivatives at one time.
 FoFJK:  IHMeth= 1 ICntrl=     0 DoSepK=T KAlg= 1 I1Cent= 0 FoldK=F
 LinEq1:  Iter=  1 NonCon=     1 RMS=5.30D-05 Max=2.78D-03
 FoFJK:  IHMeth= 1 ICntrl=     0 DoSepK=T KAlg= 1 I1Cent= 0 FoldK=F
 LinEq1:  Iter=  2 NonCon=     1 RMS=2.16D-05 Max=1.00D-03
 FoFJK:  IHMeth= 1 ICntrl=     0 DoSepK=T KAlg= 1 I1Cent= 0 FoldK=F
 LinEq1:  Iter=  3 NonCon=     1 RMS=1.21D-05 Max=6.57D-04
 FoFJK:  IHMeth= 1 ICntrl=     0 DoSepK=T KAlg= 1 I1Cent= 0 FoldK=F
 LinEq1:  Iter=  4 NonCon=     1 RMS=4.01D-06 Max=1.58D-04
 FoFJK:  IHMeth= 1 ICntrl=     0 DoSepK=T KAlg= 1 I1Cent= 0 FoldK=F
 LinEq1:  Iter=  5 NonCon=     1 RMS=2.27D-06 Max=8.53D-05
 FoFJK:  IHMeth= 1 ICntrl=     0 DoSepK=T KAlg= 1 I1Cent= 0 FoldK=F
 LinEq1:  Iter=  6 NonCon=     1 RMS=1.34D-06 Max=4.40D-05
 FoFJK:  IHMeth= 1 ICntrl=     0 DoSepK=T KAlg= 1 I1Cent= 0 FoldK=F
 LinEq1:  Iter=  7 NonCon=     1 RMS=5.05D-07 Max=2.09D-05
 FoFJK:  IHMeth= 1 ICntrl=     0 DoSepK=T KAlg= 1 I1Cent= 0 FoldK=F
 LinEq1:  Iter=  8 NonCon=     1 RMS=2.90D-07 Max=1.45D-05
 FoFJK:  IHMeth= 1 ICntrl=     0 DoSepK=T KAlg= 1 I1Cent= 0 FoldK=F
 LinEq1:  Iter=  9 NonCon=     1 RMS=1.39D-07 Max=5.11D-06
 FoFJK:  IHMeth= 1 ICntrl=     0 DoSepK=T KAlg= 1 I1Cent= 0 FoldK=F
 LinEq1:  Iter= 10 NonCon=     1 RMS=7.16D-08 Max=2.63D-06
 FoFJK:  IHMeth= 1 ICntrl=     0 DoSepK=T KAlg= 1 I1Cent= 0 FoldK=F
 LinEq1:  Iter= 11 NonCon=     1 RMS=2.92D-08 Max=7.99D-07
 FoFJK:  IHMeth= 1 ICntrl=     0 DoSepK=T KAlg= 1 I1Cent= 0 FoldK=F
 LinEq1:  Iter= 12 NonCon=     1 RMS=1.45D-08 Max=6.02D-07
 FoFJK:  IHMeth= 1 ICntrl=     0 DoSepK=T KAlg= 1 I1Cent= 0 FoldK=F
 LinEq1:  Iter= 13 NonCon=     1 RMS=6.28D-09 Max=2.02D-07
 FoFJK:  IHMeth= 1 ICntrl=     0 DoSepK=T KAlg= 1 I1Cent= 0 FoldK=F
 LinEq1:  Iter= 14 NonCon=     0 RMS=2.78D-09 Max=1.16D-07
 Linear equations converged to 1.927D-08 1.927D-07 after    14 iterations.
 FoFJK:  IHMeth= 1 ICntrl=     0 DoSepK=T KAlg= 1 I1Cent= 0 FoldK=F
 FoFJK:  IHMeth= 1 ICntrl=     0 DoSepK=T KAlg= 1 I1Cent= 0 FoldK=F
 FoFJK:  IHMeth= 1 ICntrl=     0 DoSepK=T KAlg= 1 I1Cent= 0 FoldK=F
 LinEq1:  Iter=  0 NonCon=     1 RMS=7.54D-08 Max=3.29D-06
 FoFJK:  IHMeth= 1 ICntrl=     0 DoSepK=T KAlg= 1 I1Cent= 0 FoldK=F
 LinEq1:  Iter=  1 NonCon=     1 RMS=4.93D-08 Max=1.70D-06
 FoFJK:  IHMeth= 1 ICntrl=     0 DoSepK=T KAlg= 1 I1Cent= 0 FoldK=F
 LinEq1:  Iter=  2 NonCon=     1 RMS=2.60D-08 Max=1.83D-06
 FoFJK:  IHMeth= 1 ICntrl=     0 DoSepK=T KAlg= 1 I1Cent= 0 FoldK=F
 LinEq1:  Iter=  3 NonCon=     1 RMS=1.88D-08 Max=9.33D-07
 FoFJK:  IHMeth= 1 ICntrl=     0 DoSepK=T KAlg= 1 I1Cent= 0 FoldK=F
 LinEq1:  Iter=  4 NonCon=     1 RMS=1.43D-08 Max=6.04D-07
 FoFJK:  IHMeth= 1 ICntrl=     0 DoSepK=T KAlg= 1 I1Cent= 0 FoldK=F
 LinEq1:  Iter=  5 NonCon=     1 RMS=7.03D-09 Max=3.89D-07
 FoFJK:  IHMeth= 1 ICntrl=     0 DoSepK=T KAlg= 1 I1Cent= 0 FoldK=F
 LinEq1:  Iter=  6 NonCon=     1 RMS=4.51D-09 Max=1.94D-07
 FoFJK:  IHMeth= 1 ICntrl=     0 DoSepK=T KAlg= 1 I1Cent= 0 FoldK=F
 LinEq1:  Iter=  7 NonCon=     1 RMS=1.97D-09 Max=8.85D-08
 FoFJK:  IHMeth= 1 ICntrl=     0 DoSepK=T KAlg= 1 I1Cent= 0 FoldK=F
 LinEq1:  Iter=  8 NonCon=     1 RMS=1.12D-09 Max=7.42D-08
 FoFJK:  IHMeth= 1 ICntrl=     0 DoSepK=T KAlg= 1 I1Cent= 0 FoldK=F
 LinEq1:  Iter=  9 NonCon=     1 RMS=5.54D-10 Max=2.83D-08
 FoFJK:  IHMeth= 1 ICntrl=     0 DoSepK=T KAlg= 1 I1Cent= 0 FoldK=F
 LinEq1:  Iter= 10 NonCon=     1 RMS=2.36D-10 Max=5.10D-09
 FoFJK:  IHMeth= 1 ICntrl=     0 DoSepK=T KAlg= 1 I1Cent= 0 FoldK=F
 LinEq1:  Iter= 11 NonCon=     1 RMS=1.11D-10 Max=4.57D-09
 FoFJK:  IHMeth= 1 ICntrl=     0 DoSepK=T KAlg= 1 I1Cent= 0 FoldK=F
 LinEq1:  Iter= 12 NonCon=     1 RMS=4.79D-11 Max=1.25D-09
 FoFJK:  IHMeth= 1 ICntrl=     0 DoSepK=T KAlg= 1 I1Cent= 0 FoldK=F
 LinEq1:  Iter= 13 NonCon=     0 RMS=2.10D-11 Max=8.25D-10
 Linear equations converged to 9.475D-11 9.475D-10 after    13 iterations.
 FoFJK:  IHMeth= 1 ICntrl=     0 DoSepK=T KAlg= 1 I1Cent= 0 FoldK=F
 SCF Done:  E(RCAM-B3LYP) =  -951.714612070     a.u. after    6 cycles
            Convg  =    0.1235D-08                    45 Fock formations.
              S**2 =  0.0000                  -V/T =  2.0026
 Calling FoFJK, ICntrl=      2127 FMM=F ISym2X=0 I1Cent= 0 IOpClX= 0 NMat=1 NMatS=1 NMatT=0.
 FoFJK:  IHMeth= 1 ICntrl=  2127 DoSepK=T KAlg= 1 I1Cent= 0 FoldK=F
 ***** Axes restored to original set *****
 -------------------------------------------------------------------
 Center     Atomic                   Forces (Hartrees/Bohr)
 Number     Number              X              Y              Z
 -------------------------------------------------------------------
      1        6          -0.004219278   -0.000802394    0.000012097
      2        6          -0.000221803    0.003698922    0.000006389
      3        6          -0.001294301   -0.002236094   -0.000006557
      4        6           0.001856943    0.000513562    0.000161245
      5        6          -0.000267469    0.008603147   -0.000253626
      6        6           0.029701809   -0.042872488   -0.000230540
      7        1           0.000799033    0.000441755    0.000001062
      8        1           0.000004178   -0.000088909    0.000003443
      9        1          -0.000774460    0.000544395   -0.000045801
     10        7           0.000147679    0.001327685    0.000027697
     11        8          -0.000593221   -0.000208426   -0.000008787
     12        8           0.000166087   -0.000101385   -0.000007337
     13        7           0.000550742    0.001466353    0.000553602
     14        1          -0.000166729    0.000107867   -0.000318798
     15        1          -0.000581455    0.000628329    0.000021559
     16       17          -0.025107754    0.028977681    0.000084354
 -------------------------------------------------------------------
 Cartesian Forces:  Max     0.042872488 RMS     0.009481063

 GradGradGradGradGradGradGradGradGradGradGradGradGradGradGradGradGradGrad
 Berny optimization.
 Using GEDIIS/GDIIS optimizer.
 Internal  Forces:  Max     0.038246823 RMS     0.004922277
 Search for a local minimum.
 Step number   2 out of a maximum of   82
 All quantities printed in internal units (Hartrees-Bohrs-Radians)
 Mixed Optimization -- RFO/linear search
 Update second derivatives using D2CorX and points    1    2
 DE= -2.28D-02 DEPred=-2.23D-02 R= 1.02D+00
 SS=  1.41D+00  RLast= 2.66D-01 DXNew= 5.0454D-01 7.9902D-01
 Trust test= 1.02D+00 RLast= 2.66D-01 DXMaxT set to 5.05D-01
 Use linear search instead of GDIIS.
     Eigenvalues ---    0.00943   0.00943   0.01895   0.02142   0.02163
     Eigenvalues ---    0.02194   0.02255   0.02302   0.02343   0.02352
     Eigenvalues ---    0.02373   0.02435   0.03029   0.15994   0.16000
     Eigenvalues ---    0.16000   0.16000   0.16012   0.22433   0.23652
     Eigenvalues ---    0.24747   0.24986   0.24998   0.25000   0.25000
     Eigenvalues ---    0.26874   0.35741   0.36092   0.36114   0.37395
     Eigenvalues ---    0.43017   0.43871   0.46856   0.47030   0.47108
     Eigenvalues ---    0.47246   0.48753   0.50727   0.52065   0.54530
     Eigenvalues ---    0.97553   0.977221000.000001000.000001000.00000
     Eigenvalues --- 1000.000001000.000001000.000001000.000001000.00000
     Eigenvalues --- 1000.000001000.000001000.000001000.000001000.00000
     Eigenvalues --- 1000.000001000.000001000.000001000.000001000.00000
     Eigenvalues --- 1000.000001000.000001000.000001000.000001000.00000
     Eigenvalues --- 1000.000001000.000001000.000001000.000001000.00000
     Eigenvalues --- 1000.000001000.00000
 RFO step:  Lambda=-2.69069535D-03 EMin= 9.43230907D-03
 Quartic linear search produced a step of  0.27427.
 Iteration  1 RMS(Cart)=  0.01453095 RMS(Int)=  0.00011765
 Iteration  2 RMS(Cart)=  0.00022968 RMS(Int)=  0.00004113
 Iteration  3 RMS(Cart)=  0.00000005 RMS(Int)=  0.00004113
 Variable       Old X    -DE/DX   Delta X   Delta X   Delta X     New X
                                 (Linear)    (Quad)   (Total)
    R1        2.61612  -0.00285  -0.00098  -0.00685  -0.00782   2.60830
    R2        2.61534  -0.00494   0.00984  -0.01819  -0.00828   2.60706
    R3        2.03783   0.00072  -0.00042   0.00271   0.00229   2.04012
    R4        2.60626   0.00280  -0.00143   0.00908   0.00759   2.61384
    R5        2.75382  -0.00014   0.00035  -0.00062  -0.00027   2.75355
    R6        2.59700   0.00002  -0.00209   0.00205  -0.00012   2.59688
    R7        2.03912   0.00007   0.00003   0.00024   0.00027   2.03939
    R8        2.64130  -0.00028   0.00096  -0.00139  -0.00044   2.64086
    R9        2.04560  -0.00022   0.00019  -0.00085  -0.00066   2.04495
   R10        2.68719  -0.01137   0.01291  -0.03898  -0.02600   2.66118
   R11        2.57623  -0.00015  -0.00059  -0.00004  -0.00063   2.57560
   R12        3.13597   0.03825   0.06193   0.03907   0.10100   3.23697
   R13        2.29605  -0.00018   0.00011  -0.00030  -0.00019   2.29586
   R14        2.29652  -0.00004   0.00005  -0.00008  -0.00003   2.29649
   R15        1.89732  -0.00011   0.00013  -0.00036  -0.00024   1.89708
   R16        1.89764   0.00084  -0.00025   0.00240   0.00216   1.89979
    A1        2.09711  -0.00140   0.01138  -0.01262  -0.00115   2.09596
    A2        2.09097   0.00013  -0.00640   0.00189  -0.00455   2.08642
    A3        2.09511   0.00127  -0.00498   0.01072   0.00569   2.10081
    A4        2.11957  -0.00123   0.00014  -0.00367  -0.00358   2.11599
    A5        2.07835   0.00008   0.00083  -0.00115  -0.00030   2.07805
    A6        2.08526   0.00115  -0.00097   0.00483   0.00389   2.08915
    A7        2.07764  -0.00107  -0.00204  -0.00081  -0.00299   2.07464
    A8        2.08751   0.00059   0.00108   0.00081   0.00197   2.08948
    A9        2.11804   0.00048   0.00096   0.00000   0.00103   2.11906
   A10        2.11988  -0.00071   0.00208  -0.00258  -0.00059   2.11929
   A11        2.08475   0.00130  -0.00216   0.00877   0.00665   2.09140
   A12        2.07855  -0.00059   0.00008  -0.00618  -0.00606   2.07248
   A13        2.07194  -0.00095   0.00785  -0.00957  -0.00166   2.07028
   A14        2.09871   0.00344  -0.01304   0.02265   0.00958   2.10829
   A15        2.11212  -0.00249   0.00519  -0.01306  -0.00789   2.10423
   A16        2.08023   0.00535  -0.01941   0.02925   0.00997   2.09020
   A17        2.09352   0.00156   0.00055   0.00966   0.01014   2.10366
   A18        2.10943  -0.00691   0.01887  -0.03891  -0.02011   2.08932
   A19        2.05815  -0.00107   0.00047  -0.00553  -0.00506   2.05309
   A20        2.05549   0.00075   0.00001   0.00379   0.00380   2.05928
   A21        2.16955   0.00032  -0.00047   0.00174   0.00127   2.17081
   A22        2.06803   0.00032  -0.00164   0.00474   0.00304   2.07106
   A23        2.07350   0.00003   0.00239   0.00208   0.00441   2.07791
   A24        2.03267  -0.00015  -0.00025   0.00121   0.00089   2.03356
    D1       -0.00130   0.00001   0.00008   0.00063   0.00071  -0.00059
    D2       -3.14100   0.00001  -0.00003   0.00013   0.00011  -3.14089
    D3        3.13851  -0.00001   0.00029   0.00090   0.00119   3.13970
    D4       -0.00119  -0.00001   0.00019   0.00040   0.00059  -0.00061
    D5       -0.00066   0.00000  -0.00001   0.00033   0.00033  -0.00033
    D6        3.13876  -0.00005   0.00086   0.00117   0.00202   3.14078
    D7       -3.14046   0.00002  -0.00022   0.00008  -0.00014  -3.14061
    D8       -0.00105  -0.00003   0.00064   0.00091   0.00155   0.00050
    D9        0.00188  -0.00001  -0.00004  -0.00078  -0.00082   0.00106
   D10       -3.14045  -0.00001  -0.00007  -0.00062  -0.00069  -3.14114
   D11        3.14157  -0.00001   0.00007  -0.00029  -0.00022   3.14135
   D12       -0.00075  -0.00001   0.00004  -0.00013  -0.00009  -0.00084
   D13        3.13918   0.00001   0.00003   0.00092   0.00095   3.14014
   D14       -0.00210  -0.00001   0.00005  -0.00062  -0.00057  -0.00267
   D15       -0.00055   0.00001  -0.00008   0.00044   0.00037  -0.00018
   D16        3.14135  -0.00001  -0.00006  -0.00110  -0.00116   3.14019
   D17       -0.00048   0.00000  -0.00007  -0.00007  -0.00013  -0.00061
   D18        3.13675  -0.00002   0.00005  -0.00038  -0.00033   3.13642
   D19       -3.14132   0.00000  -0.00004  -0.00023  -0.00027  -3.14159
   D20       -0.00410  -0.00002   0.00008  -0.00054  -0.00047  -0.00456
   D21       -0.00143   0.00001   0.00011   0.00103   0.00115  -0.00028
   D22        3.10976  -0.00002   0.00026   0.00176   0.00202   3.11178
   D23       -3.13867   0.00003   0.00001   0.00131   0.00131  -3.13736
   D24       -0.02748   0.00000   0.00015   0.00204   0.00218  -0.02530
   D25        0.00198  -0.00001  -0.00009  -0.00113  -0.00123   0.00075
   D26       -3.13741   0.00003  -0.00091  -0.00204  -0.00295  -3.14036
   D27       -3.10897  -0.00009   0.00010  -0.00251  -0.00241  -3.11138
   D28        0.03483  -0.00005  -0.00071  -0.00342  -0.00413   0.03070
   D29        0.28517  -0.00025  -0.00228  -0.01848  -0.02077   0.26441
   D30        2.92555   0.00014  -0.00132  -0.00099  -0.00229   2.92326
   D31       -2.88753  -0.00025  -0.00210  -0.01765  -0.01976  -2.90729
   D32       -0.24715   0.00014  -0.00114  -0.00016  -0.00129  -0.24844
         Item               Value     Threshold  Converged?
 Maximum Force            0.038247     0.000015     NO 
 RMS     Force            0.004922     0.000010     NO 
 Maximum Displacement     0.090012     0.000060     NO 
 RMS     Displacement     0.014661     0.000040     NO 
 Predicted change in Energy=-1.914011D-03
 GradGradGradGradGradGradGradGradGradGradGradGradGradGradGradGradGradGrad

                          Input orientation:                          
 ---------------------------------------------------------------------
 Center     Atomic      Atomic             Coordinates (Angstroms)
 Number     Number       Type             X           Y           Z
 ---------------------------------------------------------------------
      1          6           0       -1.213972   -0.203265   -0.000049
      2          6           0       -0.376312   -1.300269    0.001550
      3          6           0       -0.880954   -2.588112    0.002918
      4          6           0       -2.243498   -2.766784    0.001395
      5          6           0       -3.121012   -1.679163   -0.000764
      6          6           0       -2.582461   -0.377974   -0.001015
      7          1           0       -0.790551    0.789821    0.000688
      8          1           0       -0.203494   -3.428178    0.004583
      9          1           0       -2.655127   -3.767569   -0.002425
     10          7           0        1.065536   -1.089881    0.003435
     11          8           0        1.778528   -2.073575    0.006382
     12          8           0        1.474926    0.054332    0.000653
     13          7           0       -4.469909   -1.870942   -0.037161
     14          1           0       -4.832114   -2.784445    0.168074
     15          1           0       -5.078843   -1.093747    0.152179
     16         17           0       -3.632479    0.975390   -0.001804
 ---------------------------------------------------------------------
                    Distance matrix (angstroms):
                    1          2          3          4          5
     1  C    0.000000
     2  C    1.380252   0.000000
     3  C    2.407988   1.383186   0.000000
     4  C    2.762527   2.374247   1.374210   0.000000
     5  C    2.411447   2.770730   2.417449   1.397482   0.000000
     6  C    1.379596   2.391177   2.789238   2.412740   1.408236
     7  H    1.079586   2.130744   3.379143   3.841939   3.395134
     8  H    3.379520   2.134917   1.079197   2.144544   3.401617
     9  H    3.844633   3.358658   2.130455   1.082138   2.139741
    10  N    2.445866   1.457119   2.456323   3.709679   4.227820
    11  O    3.528904   2.289402   2.708801   4.081330   4.915395
    12  O    2.701209   2.293911   3.540153   4.667481   4.911991
    13  N    3.658367   4.133364   3.660128   2.400193   1.362948
    14  H    4.447663   4.699434   3.959481   2.594037   2.044022
    15  H    3.969051   4.709473   4.458439   3.295599   2.049197
    16  Cl   2.690429   3.972563   4.502161   3.991634   2.703377
                    6          7          8          9         10
     6  C    0.000000
     7  H    2.138852   0.000000
     8  H    3.868237   4.258658   0.000000
[...]
 ! D5    D(2,1,6,5)             -0.0101         -DE/DX =    0.0                 !
 ! D6    D(2,1,6,16)           179.7872         -DE/DX =    0.0                 !
 ! D7    D(7,1,6,5)           -179.9206         -DE/DX =    0.0                 !
 ! D8    D(7,1,6,16)            -0.1233         -DE/DX =    0.0                 !
 ! D9    D(1,2,3,4)              0.0735         -DE/DX =    0.0                 !
 ! D10   D(1,2,3,8)           -179.9362         -DE/DX =    0.0                 !
 ! D11   D(10,2,3,4)           179.9721         -DE/DX =    0.0                 !
 ! D12   D(10,2,3,8)            -0.0377         -DE/DX =    0.0                 !
 ! D13   D(1,2,10,11)          179.8836         -DE/DX =    0.0                 !
 ! D14   D(1,2,10,12)           -0.1075         -DE/DX =    0.0                 !
 ! D15   D(3,2,10,11)           -0.0171         -DE/DX =    0.0                 !
 ! D16   D(3,2,10,12)          179.9917         -DE/DX =    0.0                 !
 ! D17   D(2,3,4,5)              0.0084         -DE/DX =    0.0                 !
 ! D18   D(2,3,4,9)            179.7835         -DE/DX =    0.0                 !
 ! D19   D(8,3,4,5)           -179.9817         -DE/DX =    0.0                 !
 ! D20   D(8,3,4,9)             -0.2065         -DE/DX =    0.0                 !
 ! D21   D(3,4,5,6)             -0.0864         -DE/DX =    0.0                 !
 ! D22   D(3,4,5,13)           178.579          -DE/DX =    0.0                 !
 ! D23   D(9,4,5,6)           -179.8639         -DE/DX =    0.0                 !
 ! D24   D(9,4,5,13)            -1.1985         -DE/DX =    0.0                 !
 ! D25   D(4,5,6,1)              0.0875         -DE/DX =    0.0                 !
 ! D26   D(4,5,6,16)          -179.711          -DE/DX =    0.0                 !
 ! D27   D(13,5,6,1)          -178.5736         -DE/DX =    0.0                 !
 ! D28   D(13,5,6,16)            1.6279         -DE/DX =    0.0                 !
 ! D29   D(4,5,13,14)           12.4248         -DE/DX =    0.0                 !
 ! D30   D(4,5,13,15)          170.2325         -DE/DX =    0.0                 !
 ! D31   D(6,5,13,14)         -168.9613         -DE/DX =    0.0                 !
 ! D32   D(6,5,13,15)          -11.1536         -DE/DX =    0.0                 !
 --------------------------------------------------------------------------------
 GradGradGradGradGradGradGradGradGradGradGradGradGradGradGradGradGradGrad

 1\1\GINC-DLT12\Freq\RCAM-B3LYP\Gen\C6H5Cl1N2O2\MATHEUSMAXIMO\10-Feb-20
 23\0\\#N Geom=AllCheck Guess=TCheck SCRF=Check GenChk RCAM-B3LYP/ChkBa
 s Freq\\NA+Cl CAM-B3LYP def2-TZVPD\\0,1\C,-1.2104727231,-0.1966672762,
 0.0010684741\C,-0.3743148582,-1.2970221149,0.0008944832\C,-0.882268733
 9,-2.5847267396,0.004862259\C,-2.2432116493,-2.7694254377,0.0075085644
 \C,-3.1266655098,-1.6821817295,0.006099562\C,-2.5700838018,-0.39402100
 24,0.0037525\H,-0.7936949423,0.7985522508,0.0005611733\H,-0.2033287268
 ,-3.4235505768,0.0056585043\H,-2.6506919884,-3.7720195612,0.0070708286
 \N,1.0673284841,-1.0909463667,-0.0013175264\O,1.7791328912,-2.07570059
 36,0.0007629645\O,1.4778394099,0.0525885042,-0.004949315\N,-4.47191555
 34,-1.8716489531,-0.020128019\H,-4.8437133946,-2.7877833898,0.14941618
 97\H,-5.0830650364,-1.0886139738,0.1277629699\Cl,-3.632608417,0.978804
 7602,0.0096170074\\Version=EM64L-G09RevA.02\State=1-A\HF=-951.7177764\
 RMSD=0.000e+00\RMSF=1.302e-06\ZeroPoint=0.1113621\Thermal=0.120805\Dip
 ole=-2.3584646,-0.8682641,0.1736723\DipoleDeriv=0.4656244,0.0034002,0.
 0030894,-0.1472794,-0.0775097,0.0008502,0.0025043,0.0000838,-0.0141099
 ,-0.9721313,-0.0636684,-0.0031326,-0.0758323,-0.1957431,0.0001942,0.00
 26572,-0.0005499,-0.0072801,0.3662055,0.1921106,0.0009277,0.30547,0.12
 43602,-0.0012592,0.0009224,0.0004315,-0.0406499,-0.600793,-0.153956,-0
 .0040239,0.4272154,0.0993449,0.0070374,0.0058549,0.0045767,-0.1836111,
 1.8254247,0.4132599,0.026479,0.3574342,-0.0111873,0.0047009,0.0505087,
 0.0100169,0.1439951,-0.1891378,-0.4942535,-0.0061474,-1.0641715,0.5346
 121,-0.0052712,0.0086795,0.0037584,-0.0746102,0.1527525,-0.0104413,0.0
 000417,0.0067158,0.0860395,-0.0002322,-0.0016369,0.0001103,0.1324192,0
 .113331,0.0361777,0.0001694,0.0237993,0.0795252,0.0003227,-0.0001338,0
 .0002689,0.1340086,0.0110549,-0.0525243,0.0014031,-0.0511246,-0.036648
 ,0.0011422,-0.001232,-0.000315,0.1383951,2.372766,0.0168587,-0.0001394
 ,0.1162547,1.6214705,-0.0038762,-0.0036417,-0.003751,0.2538247,-1.0936
 84,0.424256,-0.0005307,0.3840773,-0.8612597,0.0019615,-0.0003063,0.001
 3314,-0.2522603,-0.8636149,-0.3504274,0.001583,-0.3832667,-1.0496099,0
 .0019707,0.0019693,0.002471,-0.2510496,-1.7385606,-0.2719371,-0.050128
 3,-0.2431821,-0.2187873,-0.0140063,-0.2613297,-0.0586491,-0.4925047,0.
 2100794,0.0705082,0.0112367,0.1037104,0.1710474,0.0208859,0.09725,0.04
 23223,0.2923675,0.2478255,-0.0171989,0.0135498,-0.0697106,0.189656,-0.
 0155588,0.0931219,-0.0016767,0.2672685,-0.3071425,0.2578355,0.0056226,
 0.3098901,-0.4553109,0.0011383,0.0048123,-0.0004294,-0.0462028\Polar=1
 62.2570842,-3.9862661,122.291177,-0.0360718,-0.0988846,62.0803363\PG=C
 01 [X(C6H5Cl1N2O2)]\NImag=0\\0.71580673,0.03213820,0.76310146,-0.00092
 480,-0.00022638,0.14345794,-0.17865476,0.13004622,0.00007581,0.5876229
 1,0.06505139,-0.27452811,0.00004425,-0.02688026,0.76587606,0.00005328,
 0.00000948,-0.06454952,-0.00081461,-0.00115858,0.13757789,0.05763028,-
 0.00806797,-0.00002723,-0.13427586,-0.02388648,0.00016258,0.74606124,0
 .04203870,-0.05867164,0.00004546,-0.08744403,-0.31384252,0.00074098,-0
 .04240134,0.73015125,-0.00019638,0.00013197,0.00901294,0.00037084,0.00
 063382,-0.06613973,-0.00081321,-0.00121768,0.14655443,-0.05463941,0.02
 748281,0.00002560,-0.02560895,-0.08774591,0.00024367,-0.37192471,0.001
 84235,0.00047153,0.73424016,0.01529294,-0.01066072,0.00001372,-0.02914
 375,0.01775345,0.00004541,-0.06841410,-0.13905062,0.00032834,0.0476979
 3,0.71328583,0.00042148,-0.00010107,-0.00222682,0.00007457,0.00056393,
 0.00857572,0.00009937,-0.00022316,-0.06132398,0.00027624,-0.00059216,0
 .12865512,-0.01838521,-0.03736374,0.00046294,0.01800033,0.01208625,-0.
 00012411,-0.04853923,0.01923745,0.00044850,-0.18076469,0.10963901,0.00
 073449,0.75938204,-0.08991030,0.02882773,0.00029574,0.01296218,-0.0775
 5148,0.00008554,0.07062836,0.05902965,-0.00035396,0.04056085,-0.250235
 46,0.00068595,0.00647558,0.68442012,-0.00040118,-0.00029878,0.00330807
 ,0.00107770,0.00024613,-0.00508973,-0.00066835,0.00006013,0.00180037,0
 .00063463,-0.00083327,-0.07063597,-0.00518673,-0.00208640,0.17027837,-
 0.35224552,-0.07891050,0.00047892,-0.05399302,0.07176591,0.00005298,-0
 .04037772,-0.03947132,0.00014694,0.05841499,-0.00256407,-0.00030151,-0
 .13357407,-0.02396575,0.00063973,0.65885349,-0.00791987,-0.12944464,-0
 .00010340,0.00538921,0.04742822,-0.00002534,-0.02919580,-0.02796435,0.
 00011475,0.03896169,-0.04470843,-0.00020379,-0.09368092,-0.26006697,0.
 00172918,0.05830431,0.55034512,-0.00002600,0.00021324,-0.06169238,0.00
 036148,-0.00047186,0.00789095,0.00026261,0.00026785,-0.00286277,-0.000
 26093,0.00005585,0.00688556,0.00057744,0.00023836,-0.07283412,-0.00064
 473,0.00011920,0.11838448,-0.09827343,-0.10226206,0.00008478,0.0138091
 3,0.01586937,-0.00001025,-0.00258118,0.00381820,-0.00000045,-0.0011504
 6,0.00058490,0.00000131,-0.00460525,0.00026633,0.00000121,-0.00785697,
 -0.02737264,-0.00001462,0.10099708,-0.10300377,-0.31081976,0.00010974,
 -0.01025914,-0.01784042,0.00002461,0.00376724,-0.00199424,-0.00000870,
 0.00041021,0.00068244,-0.00000641,0.00047904,0.00068138,0.00000589,0.0
 0086464,0.00149648,0.00000410,0.11151525,0.32670323,0.00017718,0.00006
 556,-0.04103782,-0.00008953,0.00006729,0.00591851,-0.00000822,-0.00002
 587,0.00487216,0.00000670,0.00002436,-0.00111514,0.00000140,0.00000388
 ,0.00671783,-0.00001869,0.00002560,0.00518566,-0.00008236,-0.00014203,
 0.02714859,-0.00057973,-0.00322562,0.00001048,0.01239674,-0.00754059,0
 .00000486,-0.17004447,0.14290907,-0.00008569,-0.01276510,0.02347009,-0
 .00003214,-0.00430259,-0.00147659,-0.00000986,-0.00086503,-0.00087513,
 0.00000478,0.00068151,-0.00057819,-0.00000141,0.17807368,-0.00337431,-
 0.00422973,0.00002317,0.01968005,-0.01762462,0.00002088,0.14114644,-0.
 24046532,0.00024567,-0.00499778,0.00944878,-0.00000017,-0.00229415,0.0
 0078185,-0.00000823,-0.00088840,0.00007520,0.00000025,0.00101869,-0.00
 071257,0.00000074,-0.15363754,0.24968907,0.00002672,0.00002381,0.00491
 140,-0.00007514,0.00006302,0.00552820,-0.00007312,0.00024176,-0.041420
 76,0.00004400,-0.00008285,0.00506370,-0.00002871,0.00001295,0.00828570
 ,0.00000932,-0.00001047,-0.00096321,-0.00000605,0.00000403,0.00049884,
 0.00008773,-0.00026761,0.02786289,-0.00116917,0.00069139,-0.00001159,-
 0.00496153,0.00054414,0.00000970,-0.00817667,-0.03102338,0.00000535,-0
 .09807282,-0.09619700,0.00009400,0.00935637,0.01937890,-0.00002679,-0.
 00162077,0.00223866,-0.00002173,0.00002026,-0.00005845,0.00000791,0.00
 124797,0.00036092,0.00000870,0.10206204,0.00109509,0.00004511,-0.00000
 371,-0.00032427,0.00222281,-0.00002073,-0.00047650,0.00025261,0.000007
 12,-0.09584876,-0.30207674,-0.00012198,-0.01242886,-0.01960306,0.00001
 729,0.00288710,-0.00133687,0.00002462,-0.00002762,-0.00002040,-0.00000
 382,-0.00018735,0.00072634,0.00001628,0.10443391,0.31906189,-0.0000142
 6,-0.00001358,-0.00109929,0.00004917,-0.00002639,0.00716208,0.00011065
 ,0.00013900,0.00297412,-0.00015785,-0.00031367,-0.03474011,-0.00004810
 ,0.00008671,0.00451703,-0.00001254,0.00004228,0.00530183,0.00000206,0.
 00000145,-0.00019795,-0.00001464,-0.00001346,-0.00497523,-0.00013612,0
 .00020427,0.02378062,-0.04767302,0.01251701,0.00004185,-0.13263934,-0.
 00342241,0.00005889,-0.03350763,-0.02764600,0.00010058,0.01486029,-0.0
 0594883,-0.00007728,-0.01743232,-0.00273497,-0.00083622,0.01067334,0.0
 1465599,-0.00016797,0.00137641,-0.00200349,0.00003175,0.00067937,0.003
 52149,-0.00001222,0.00059438,0.00041311,0.00000950,0.69322928,0.017746
 44,0.01878460,-0.00004200,-0.00285338,-0.11454818,0.00005934,-0.032016
 51,0.00781029,0.00001710,-0.00304084,-0.00862961,0.00006990,-0.0017481
 6,-0.00618324,-0.00011386,0.00708785,-0.00155262,-0.00005798,0.0014531
 0,-0.00328880,0.00000473,-0.00009557,-0.00292561,-0.00000449,-0.001708
 72,0.00006746,0.00001035,-0.04140855,0.97706319,0.00002488,-0.00000451
 ,-0.00304021,0.00004764,0.00000740,-0.08357228,0.00010630,0.00003137,-
 0.00332644,-0.00001603,0.00004358,0.00735847,0.00002685,0.00001185,-0.
 00132227,0.00004394,-0.00000125,0.00770001,-0.00000896,0.00001368,-0.0
 0458984,-0.00000663,-0.00000801,-0.00430677,0.00000863,-0.00001233,0.0
 0130246,-0.00036776,-0.00197297,0.25116164,-0.00225310,-0.00773313,0.0
 0001274,-0.05350782,0.04660704,-0.00003544,-0.00048015,0.00378259,-0.0
 0000308,-0.00244088,0.00195511,0.00001576,0.00469077,0.00273551,0.0002
 3368,-0.00359748,-0.00286341,0.00006000,0.00072163,-0.00011268,-0.0000
 1445,-0.00415256,-0.00019063,0.00000612,-0.00019651,-0.00016210,-0.000
 00433,-0.30397638,0.20343965,-0.00036383,0.32407450,-0.00085205,0.0016
 7306,0.00000470,0.03200580,-0.00019031,0.00002255,-0.00939245,-0.00898
 471,0.00003144,0.00364955,0.00112686,-0.00003498,-0.00351583,0.0001533
 6,-0.00014661,0.00113270,0.00235432,-0.00003438,-0.00166444,0.00096590
 ,0.00001504,-0.00123652,0.00327093,-0.00000408,0.00021980,0.00000217,0
 .00000305,0.20103849,-0.38169131,0.00064549,-0.26134264,0.50994982,0.0
 0001438,-0.00000444,0.00343505,-0.00001677,0.00002067,0.02105327,0.000
 03492,0.00002276,0.00114436,-0.00000861,-0.00000426,-0.00050537,-0.000
 00982,-0.00000660,0.00018337,-0.00001137,-0.00000508,-0.00110356,0.000
 00296,-0.00000336,0.00049979,0.00000877,-0.00000883,-0.00012231,-0.000
 00278,0.00000145,-0.00004410,-0.00033429,0.00061640,-0.08391721,0.0004
 2850,-0.00107636,0.03101350,-0.00251722,-0.00208736,0.00003139,-0.0282
 8614,-0.05453214,0.00021456,-0.00423272,0.00665890,0.00000269,-0.00395
 251,-0.00108094,0.00003520,0.00403053,-0.00092126,0.00018186,-0.000227
 83,-0.00372432,0.00001904,-0.00404835,-0.00201228,0.00000956,0.0003011
 1,-0.00018241,0.00000089,-0.00089659,-0.00010604,0.00000084,-0.2024819
 6,-0.15137337,0.00053590,0.04722453,0.03741955,-0.00011471,0.19943402,
 0.01157093,-0.00650497,-0.00001145,-0.03999744,-0.02493832,0.00018442,
 -0.00102771,0.00364562,0.00000407,-0.00277698,0.00164883,0.00000556,0.
 00477322,0.00114247,0.00020420,-0.00410253,-0.00217501,0.00005698,-0.0
 0105492,0.00283649,-0.00001505,0.00136251,0.00146878,-0.00000343,-0.00
 037170,-0.00007128,0.00000511,-0.14925522,-0.48357706,0.00126106,0.013
 61858,-0.12942608,0.00044491,0.17156846,0.63516895,-0.00001593,0.00000
 944,0.00114709,0.00017921,0.00019091,0.02112790,0.00001536,-0.00001033
 ,0.00359490,0.00001487,-0.00000628,-0.00108433,-0.00003066,-0.00000187
 ,0.00024112,0.00000072,0.00001100,-0.00061638,0.00000798,0.00000036,-0
 .00013923,-0.00000306,-0.00000179,0.00043115,0.00000100,0.00000381,-0.
 00058097,0.00053548,0.00128571,-0.08397554,-0.00004613,0.00039294,0.02
 882020,-0.00068481,-0.00187724,0.03105514,0.01060750,0.00136751,-0.000
 04226,-0.01874564,-0.00453779,0.00011203,0.01332655,0.00556556,-0.0000
 7267,-0.05735018,0.01225492,-0.00118948,-0.34828363,-0.03105689,-0.007
 51684,-0.03847962,-0.02412408,-0.00031581,-0.00028082,0.00023456,-0.00
 003366,-0.00043774,-0.00006998,-0.00000320,0.00211017,-0.00110828,-0.0
 0002897,0.01639802,0.00226912,-0.00001969,-0.00495649,0.00268548,-0.00
 000234,-0.00413445,-0.00412994,0.00001910,0.75937551,0.00825316,-0.009
 10022,-0.00018457,-0.00314738,0.00630814,0.00001714,-0.00257814,-0.009
 95812,0.00056997,0.04191576,0.01152611,0.00083251,-0.03118264,-0.13847
 063,-0.00030478,-0.05111705,-0.01186074,-0.00096690,-0.00124772,0.0002
 1394,0.00000966,0.00117408,0.00038052,-0.00004956,0.00047981,0.0020552
 0,-0.00049726,0.00214704,0.00028044,-0.00011288,-0.00095451,0.00080594
 ,0.00001935,-0.00036734,0.00005134,0.00002519,-0.01292098,0.86422876,0
 .00217444,0.00064233,0.00418596,-0.00332815,-0.00045430,-0.00071330,0.
 00215349,0.00011637,0.00469277,-0.00266226,0.00279202,0.00993176,0.017
 48478,0.00309818,-0.04164971,-0.00253016,-0.00265061,0.00909369,0.0000
 7583,-0.00001425,-0.00018488,0.00008357,0.00002540,-0.00019279,-0.0001
 5868,0.00012637,-0.00296719,0.00280192,0.00040359,-0.00043290,-0.00081
 433,0.00049536,0.00000729,-0.00063876,-0.00070869,0.00002090,-0.087997
 56,-0.02319158,0.04358015,0.00040644,-0.00173084,-0.00021111,0.0002183
 3,0.00042999,0.00004596,-0.00038021,-0.00003137,-0.00026143,0.00223556
 ,-0.00171482,-0.00053141,-0.01068063,-0.03571639,0.00643492,-0.0059369
 5,0.00215552,0.00023082,-0.00037224,0.00003798,-0.00001346,-0.00000177
 ,0.00000997,0.00003102,-0.00033558,0.00148941,0.00022714,-0.00026329,-
 0.00003194,0.00002072,0.00008290,0.00003560,-0.00000043,0.00013365,0.0
 0018518,-0.00000161,-0.12128884,-0.12595556,0.03087532,0.12203550,-0.0
 0096491,-0.00009259,0.00008156,0.00172509,0.00049767,-0.00000736,-0.00
 126619,-0.00083354,-0.00046742,0.00364924,0.00136089,-0.00046216,-0.00
 465290,0.00039114,0.00023787,0.00268907,0.00160868,0.00048541,0.000009
 81,0.00007136,-0.00001320,0.00007564,0.00000980,0.00003203,-0.00026824
 ,-0.00030665,0.00037710,-0.00155834,-0.00020046,0.00011912,0.00047891,
 -0.00031762,-0.00001566,0.00035461,0.00035392,-0.00002858,-0.12786009,
 -0.40396395,0.06284364,0.14127177,0.41572441,-0.00100382,-0.00023070,0
 .00139673,0.00109931,-0.00009749,0.00019726,-0.00043680,-0.00008650,-0
 .00088077,0.00095502,-0.00063897,-0.00157829,-0.00728063,-0.00420052,-
 0.00431706,0.00052017,0.00087812,0.00297091,-0.00005296,0.00000365,-0.
 00031591,0.00000343,0.00000139,0.00012372,0.00021197,-0.00016647,0.000
 59238,-0.00091860,-0.00015964,0.00008075,0.00027405,-0.00015745,-0.000
 05253,0.00019719,0.00023158,-0.00003352,0.04161226,0.07977941,-0.01328
 313,-0.03120540,-0.06890383,0.01795484,-0.00056012,0.00040897,-0.00013
 987,0.00063339,-0.00011209,-0.00000598,-0.00048739,0.00152763,-0.00010
 395,-0.00385772,-0.00383714,0.00035468,-0.01995586,0.02897561,0.005590
 48,-0.00011940,0.00229645,-0.00037994,-0.00000230,-0.00005305,0.000040
 83,-0.00032026,-0.00014046,-0.00001561,0.00011492,0.00015201,0.0000190
 2,-0.00063836,0.00000744,-0.00001934,0.00024489,-0.00022366,0.00001010
 ,0.00016298,0.00006153,0.00000554,-0.21185178,0.18171560,0.04149748,0.
 01323317,-0.01274120,-0.00360077,0.22205960,0.00125037,-0.00054329,-0.
 00005284,-0.00184408,-0.00072585,0.00001848,0.00145181,0.00114225,-0.0
 0004187,-0.00470789,0.00086923,-0.00045608,0.00458936,0.01148448,0.001
 34973,-0.00434837,0.00027732,0.00034715,-0.00023608,0.00004207,-0.0000
 2540,-0.00012605,-0.00000339,0.00003965,-0.00008108,0.00011187,-0.0000
 0932,0.00168666,0.00031932,-0.00001136,-0.00037917,0.00018438,-0.00000
 477,-0.00041825,-0.00057791,0.00000753,0.18210582,-0.31135155,-0.04354
 539,0.01864137,-0.01395495,-0.00608262,-0.19771114,0.31528080,-0.00050
 029,-0.00003571,-0.00053435,0.00099631,0.00033536,-0.00001404,-0.00092
 136,-0.00008928,0.00199454,0.00043671,-0.00080963,0.00289286,-0.007208
 73,0.00216831,-0.00459109,0.00144560,0.00030404,-0.00043300,0.00003256
 ,0.00000463,0.00013052,-0.00004704,-0.00000783,-0.00029582,0.00000919,
 -0.00006791,-0.00076847,-0.00086660,-0.00011041,-0.00011681,0.00024033
 ,-0.00015450,0.00000354,0.00020455,0.00022092,-0.00000294,0.05560847,-
 0.05616535,-0.01043952,-0.00576270,0.00572940,-0.00288180,-0.04315961,
 0.04848001,0.01601176,-0.02750025,0.03672910,0.00013235,-0.00200777,-0
 .00369641,0.00003187,-0.00201017,0.00063699,-0.00000958,0.00277642,-0.
 00199426,0.00002470,-0.00893658,0.00379880,-0.00014823,-0.08904744,0.0
 6575435,0.00031555,0.00156497,0.00077214,-0.00001356,0.00008886,0.0000
 3810,-0.00000045,-0.00007648,0.00019913,-0.00000156,0.00080121,0.00227
 344,-0.00001262,-0.00147785,0.00004064,0.00000151,-0.00050906,-0.00042
 399,0.00000294,0.00399143,-0.00621412,0.00098306,0.00091397,-0.0009422
 8,-0.00037442,0.00134425,0.00012672,-0.00050738,0.12008449,0.01158801,
 -0.00783630,0.00000601,0.00008516,0.00170346,-0.00001683,0.00172934,-0
 .00026662,0.00000537,-0.00705224,-0.00234084,0.00004412,0.02958729,-0.
 03480133,-0.00005848,0.06063640,-0.12447571,-0.00028191,-0.00067019,0.
 00098290,0.00000852,-0.00001223,0.00010995,-0.00001104,0.00136104,-0.0
 0113045,0.00000436,-0.00200200,-0.00172841,-0.00001025,0.00112087,0.00
 012329,0.00000384,0.00080419,0.00095423,-0.00000080,-0.00067493,-0.001
 14518,0.00002156,0.00092414,-0.00034813,-0.00016994,-0.00032651,-0.002
 55480,0.00019796,-0.09709835,0.17275395,0.00019028,-0.00018067,0.00332
 521,-0.00000784,0.00003584,0.00504683,0.00000301,-0.00001286,-0.000686
 16,-0.00000328,-0.00002218,0.00384680,0.00018108,-0.00003810,0.0051080
 8,0.00018068,-0.00022425,-0.02290770,-0.00003306,0.00000261,-0.0033911
 3,-0.00000315,-0.00000157,-0.00042873,0.00000127,-0.00000425,-0.000257
 22,0.00000097,-0.00000576,0.00099694,0.00001041,-0.00000222,-0.0004153
 1,0.00000461,-0.00000294,-0.00000549,-0.00012938,0.00021966,-0.0016491
 1,0.00012163,-0.00000793,0.00002643,-0.00009307,-0.00001290,-0.0009553
 8,-0.00042418,0.00025752,0.01234595\\0.00000034,0.00000025,0.00000017,
 -0.00000176,0.00000260,0.00000022,-0.00000079,-0.00000212,-0.00000062,
 0.00000239,-0.00000110,0.00000030,0.00000180,0.00000382,-0.00000006,-0
 .00000230,-0.00000273,-0.00000037,0.00000035,0.00000019,0.00000004,0.0
 0000036,0.00000082,0.00000006,0.00000007,0.,-0.00000021,0.00000056,0.0
 0000331,0.00000023,0.00000194,0.00000012,0.00000006,-0.00000178,-0.000
 00126,-0.00000004,-0.00000161,-0.00000115,0.00000041,0.00000053,-0.000
 00074,-0.00000017,-0.00000009,-0.00000080,-0.00000021,-0.00000002,-0.0
 0000122,0.00000019\\\@


 ABSOLUTISM, OBSOLETISM -- IF IT WORKS, IT'S OUT OF DATE

                          -- STAFFORD BEER
 Job cpu time:  0 days  6 hours 14 minutes 43.7 seconds.
 File lengths (MBytes):  RWF=    287 Int=      0 D2E=      0 Chk=     14 Scr=      1
 Normal termination of Gaussian 09 at Fri Feb 10 07:39:00 2023.
