 hostname is         dlt16.abaxnet
 this is node-proc. number 0 running on node dlt16.abaxnet
 the total number of node-proc. spawned is   1

 ricc2 (dlt16.abaxnet) : TURBOMOLE V6.6( 19125 ) 27 May 2014 at 14:24:19
 Copyright (C) 2014 TURBOMOLE GmbH, Karlsruhe


    2023-02-15 14:45:00.357 



                              R I C C 2 - PROGRAM

                          the quantum chemistry groups
                             at the universities in
                           Karlsruhe, Bochum & Mainz
                                   Germany



   *-----------------------------------------------------------------------*
   |                     program will use  1 thread(s)                     |
   *-----------------------------------------------------------------------*


              +--------------------------------------------------+
              | Atomic coordinate, charge and isotop information |
              +--------------------------------------------------+

                    atomic coordinates            atom    charge  isotop
         -0.56149807   -2.50599382   -0.02745025    c      6.000     0
         -2.48120269   -0.73532858   -0.02597573    c      6.000     0
         -1.96208749    1.82854535   -0.02427326    c      6.000     0
          0.50891719    2.62238424   -0.02695442    c      6.000     0
          2.51227316    0.89175279   -0.03170340    c      6.000     0
          1.90284257   -1.68905010   -0.03008347    c      6.000     0
         -1.00771385   -4.49551403   -0.02380109    h      1.000     0
         -3.50276261    3.16462987   -0.02117305    h      1.000     0
          0.93539064    4.62254657   -0.03235771    h      1.000     0
         -5.09528020   -1.59563411   -0.02199330    n      7.000     0
         -6.74536852    0.00109353   -0.01664207    o      8.000     0
         -5.48078854   -3.85903910   -0.02392551    o      8.000     0
          4.95236413    1.68917748   -0.08887604    n      7.000     0
          5.34186830    3.51723448    0.22733599    h      1.000     0
          6.34917327    0.43495623    0.18922709    h      1.000     0
          4.33387270   -3.89176080   -0.02135378    cl    17.000     0
 
       center of nuclear mass  :   -0.21297491   -1.07859518   -0.02674962
       center of nuclear charge:   -0.19889101   -0.98467025   -0.02412559

              +--------------------------------------------------+
              |               basis set information              |
              +--------------------------------------------------+

              we will work with the 1s 3p 5d 7f 9g ... basis set
              ...i.e. with spherical basis functions...

   type   atoms  prim   cont   basis
   ---------------------------------------------------------------------------
    c        6     52     37   def2-TZVPD   [6s3p3d1f|12s6p3d1f]
    h        5     11      9   def2-TZVPD   [3s2p|5s2p]
    n        2     52     37   def2-TZVPD   [6s3p3d1f|12s6p3d1f]
    o        2     55     40   def2-TZVPD   [6s4p3d1f|12s7p3d1f]
    cl       1     72     46   def2-TZVPD   [6s6p3d1f|15s10p4d1f]
   ---------------------------------------------------------------------------
   total:   16    653    467
   ---------------------------------------------------------------------------

   total number of primitive shells          :  104
   total number of contracted shells         :  173
   total number of cartesian basis functions :  533
   total number of SCF-basis functions       :  467



   =========================================================================


     restricted closed shell calculation for the wavefunction models:
               ADC(2)     - Algebraic Diagrammatic Construction to 2. Order (strict)


     global parameters for ricc2 program:

        hard restart (reuse of interm.) :  disabled
        soft restart (reuse of vectors) :  disabled
        threshold for vector function   :    0.100000E-06
        convergence threshold energy    :    0.100000E-07
        linear dependence threshold     :    0.100000E-13
        global print level              :      1
        maximum number of iterations    :   500
        maximum number DIIS vectors     :    10
        max. dim. of reduced space      :   100
        core memory limit (MB)          :   500
        disk space limit (MB)           :   none


   =========================================================================
     "cartesian on" in $drvopt is ignored by $ricc2

    der. integral neglect threshold  :  0.10E-08
    integral neglect threshold       :  0.63E-12
    integral storage threshold THIZE :  0.10E-04
    integral storage threshold THIME :         5


                  +------------------------------------------+
                  |     Auxiliary basis set information      |
                  +------------------------------------------+

              we will work with the 1s 3p 5d 7f 9g ... basis set
              ...i.e. with spherical basis functions...

   type   atoms  prim   cont   basis
   ---------------------------------------------------------------------------
    c        6     97     92   def2-TZVPD   [9s7p5d4f1g|9s7p6d4f1g]
    h        5     32     24   def2-TZVPD   [5s3p2d|5s4p3d]
    n        2     97     92   def2-TZVPD   [9s7p5d4f1g|9s7p6d4f1g]
    o        2     97     92   def2-TZVPD   [9s7p5d4f1g|9s7p6d4f1g]
    cl       1    135    129   def2-TZVPD   [10s8p7d6f2g|11s8p8d6f2g]
   ---------------------------------------------------------------------------
   total:   16   1265   1169
   ---------------------------------------------------------------------------

   total number of primitive shells          :  128
   total number of contracted shells         :  343
   total number of cartesian basis functions : 1446
   total number of SCF-basis functions       : 1169


 symmetry group of the molecule :   c1 

 the group has the following generators :
   c1(z)

    1 symmetry operations found

 there are 1 real representations :   a   

 maximum number of shells which are related by symmetry :  1


 The symmetry information takes   1 MB

*---------------------------------------------------------------------*
|               simplified C1 algorithm will be applied               |
*---------------------------------------------------------------------*
  MOs are in ASCII format !


 reading orbital data $scfmo  from file mos . 

 orbital characterization : scfconv=7
 

         --------------------------------------------------------------
                   checking mo's by calculating trace(D*S)

              number of electrons : 
                 from trace(D*S)         :   87.999999999996
                 from occupation numbers :   88.000000000000

              molecular charge           :    0.000000000000
         --------------------------------------------------------------

 time elapsed for calculating density matrices :   0.021 sec
 all orbitals will be active in the correlation treatment


   Molecular Orbital Statistic:
   ============================

   -----------------------------
   orbitals in total:
   -----------------------------
    frozen occupied :      0
    active occupied :     44
    active virtual  :    423
    frozen virtual  :      0
    all together    :    467
   -----------------------------


     time in riccmos       cpu:  0.23 sec    wall:  0.57 sec    ratio:  0.4

     total memory allocated for calculation of (Q|P)**(-1/2) : 16 MiB


     calculation of (P|Q) ...
     time in lp2sym        cpu:  0.05 sec    wall:  0.05 sec    ratio:  1.0


     calculation of the Cholesky decomposition of (P|Q)**(-1) ...
     time in invmetri      cpu:  0.16 sec    wall:  0.40 sec    ratio:  0.4

   threshold for RMS(d[D]) in SCF was     :  0.10E-07
   integral neglect threshold             :  0.63E-12
   derivative integral neglect threshold  :  0.10E-08


 setting up bound for integral derivative estimation

 increment for numerical differentiation : 0.00050000

   =========================================================================

     Energy of reference wave function is  -948.3286230474000
     Maximum orbital residual is           0.1023603914516E-04


     Number of symmetry-nonredundant auxiliary basis functions:     1169

     Block lengths for integral files:
        frozen occupied (BOI):        0 MiB
        active occupied (BJI):        1 MiB
        active virtual  (BAI):        4 MiB
        frozen virtual  (BGI):        0 MiB
               general  (BTI):        5 MiB

   =========================================================================




   **************************************************************************
   *                                                                        *
   *          OPTIMIZATION OF THE GROUND STATE CLUSTER AMPLITUDES           *
   *                                                                        *
   **************************************************************************


   Iter.   MP2 energy       Norm(Omega)    Norm(t1)  Norm(t2)     cpu    wall
   ...........................................................................
    1   -950.6252713262    0.1708478437     0.00000   0.47585    1.02    1.23
   ...........................................................................


     time in total         cpu:  1 min  1 s  wall:  1 min 14 s  ratio:  0.8


     **********************************************************************
     *                                                                    *
     *   RHF  energy                             :   -948.3286230474      *
     *   MP2 correlation energy                  :     -2.2966482788      *
     *                                                                    *
     *   Final MP2 energy                        :   -950.6252713262      *
     *                                                                    *
     *   Norm of MP1 T2 amplitudes               :      0.4758531242      *
     *                                                                    *
     *   D1 diagnostic                           :      0.0573            *
     *                                                                    *
     **********************************************************************



 **************************************************************
 *                                                            *
 *    OPTIMIZATION OF THE EXCITED STATE CLUSTER AMPLITUDES    *
 *                                                            *
 **************************************************************


  preoptimize excitation energies/vectors using CCS:

  ==================================================


 ======== LINEAR CC RESPONSE SOLVER ========

    threshold for convergence: 0.10E-02
    maximum number of simultaneous jacoby matrix transformations: 15
                                                
     summary of start vectors generation:
     -------------------------------------------
     type of solution vectors      : RE0
     symmetry                      : a  
     number of vectors requested   :    15
     number of vectors generated   :    15
       -- guessed as rhs/(e_a-e_i) :    15
     -------------------------------------------
                                                

    Iter  #Vectors  time (min)    max. residual 
    --------------------------------------------
      1      15         3.26     0.14E+00  (  6)
      2      15         3.28     0.70E-01  (  7)
      3      15         3.24     0.36E-01  (  7)
      4      15         3.27     0.29E-01  ( 15)
      5      15         3.32     0.16E+00  (  6)
  dimension of red. space became too large.
  try internal restart...
      6      15         3.50     0.80E-01  (  2)
                                                
     summary of start vectors generation:
     -------------------------------------------
     type of solution vectors      : RE0
     symmetry                      : a  
     number of vectors requested   :    15
     number of vectors generated   :    15
       -- restarted from file      :    15
     -------------------------------------------
                                                

    Iter  #Vectors  time (min)    max. residual 
    --------------------------------------------
      7      15         3.22     0.80E-01  (  2)
      8      13         2.90     0.38E-01  (  1)
      9      12         2.64     0.95E-02  (  1)
     10       7         1.57     0.60E-02  ( 15)
     11       5         1.07     0.69E-02  ( 15)
     12       3         0.69     0.85E-02  ( 15)
     13       2         0.50     0.73E-02  ( 15)
     14       2         0.50     0.43E-02  ( 15)
     15       2         0.51     0.31E-02  ( 15)
     16       2         0.48     0.32E-02  ( 15)
     17       2         0.53     0.29E-02  ( 15)
     18       1         0.31     0.15E-02  ( 15)
     19       1         0.32     0.82E-03  ( 15)
    --------------------------------------------
    converged in 19 iterations

         Total time         35.12 minutes


 ===========================================




 Note that this is the intermediate result of a preoptimization!
 The convergence threshold was  0.1E-02 only!


 +==================================================================+
 | sym | multi | state |          CCS excitation energies           |
 |     |       |       +--------------------------------------------+
 |     |       |       |   Hartree    |     eV       |     cm-1     |
 +==================================================================+
 | a   |   1   |   1   |    0.1939128 |      5.27664 |    42558.946 |
 | a   |   1   |   2   |    0.1978955 |      5.38501 |    43433.048 |
 | a   |   1   |   3   |    0.2054815 |      5.59144 |    45097.980 |
 | a   |   1   |   4   |    0.2064970 |      5.61907 |    45320.860 |
 | a   |   1   |   5   |    0.2331409 |      6.34409 |    51168.519 |
 | a   |   1   |   6   |    0.2530648 |      6.88624 |    55541.307 |
 | a   |   1   |   7   |    0.2536481 |      6.90212 |    55669.324 |
 | a   |   1   |   8   |    0.2604561 |      7.08737 |    57163.503 |
 | a   |   1   |   9   |    0.2632195 |      7.16257 |    57770.011 |
 | a   |   1   |  10   |    0.2703194 |      7.35577 |    59328.254 |
 | a   |   1   |  11   |    0.2735378 |      7.44334 |    60034.616 |
 | a   |   1   |  12   |    0.2836780 |      7.71927 |    62260.120 |
 | a   |   1   |  13   |    0.2905312 |      7.90576 |    63764.239 |
 | a   |   1   |  14   |    0.2918817 |      7.94250 |    64060.620 |
 | a   |   1   |  15   |    0.2958346 |      8.05007 |    64928.191 |
 +==================================================================+




  preoptimize ADC(2) excitation energies/vectors using a quasi linear algorithm:
  ==============================================================================


 ======== LINEAR CC RESPONSE SOLVER ========

    threshold for convergence: 0.10E-02
    maximum number of simultaneous jacoby matrix transformations: 15
                                                
     summary of start vectors generation:
     -------------------------------------------
     type of solution vectors      : RE0
     symmetry                      : a  
     number of vectors requested   :    15
     number of vectors generated   :    15
       -- restarted from file      :    15
     -------------------------------------------
                                                

    Iter  #Vectors  time (min)    max. residual 
    --------------------------------------------
 threshold for this macro iteration:  4.850486036387824E-002
      1      15        25.67     0.94E-01  (  1)
 ...adapted threshold to:  5.999521728944615E-002
      2       8        13.00     0.44E-01  (  8)
                                                
     summary of start vectors generation:
     -------------------------------------------
     type of solution vectors      : RE0
     symmetry                      : a  
     number of vectors requested   :    15
     number of vectors generated   :    15
       -- restarted from file      :    15
     -------------------------------------------
                                                

    Iter  #Vectors  time (min)    max. residual 
    --------------------------------------------
 threshold for this macro iteration:  6.602718312220951E-003
      3      15        24.34     0.43E-01  (  8)
      4      15        24.63     0.24E-01  (  8)
      5      15        23.92     0.18E-01  ( 13)
      6       7        11.54     0.14E-01  ( 13)
      7       5         8.36     0.13E-01  ( 15)
      8       2         4.03     0.15E-01  ( 15)
      9       1         1.95     0.88E-02  ( 15)
     10       1         1.95     0.63E-02  (  7)
                                                
     summary of start vectors generation:
     -------------------------------------------
     type of solution vectors      : RE0
     symmetry                      : a  
     number of vectors requested   :    15
     number of vectors generated   :    15
       -- restarted from file      :    15
     -------------------------------------------
                                                

    Iter  #Vectors  time (min)    max. residual 
    --------------------------------------------
 threshold for this macro iteration:  2.794411050568657E-003
     11      15        23.84     0.28E-02  ( 15)
 ...adapted threshold to:  3.029954051683270E-003
     12       1         1.86     0.57E-02  ( 15)
 ...adapted threshold to:  3.273534134340561E-003
     13       1         1.85     0.89E-02  ( 15)
 ...adapted threshold to:  3.496043887538380E-003
     14       1         1.84     0.86E-02  ( 15)
 ...adapted threshold to:  3.627057092606412E-003
     15       1         1.85     0.55E-02  ( 15)
 ...adapted threshold to:  3.741889961710987E-003
     16       1         1.84     0.68E-02  ( 15)
 ...adapted threshold to:  4.361707652774660E-003
     17       1         1.85     0.30E-01  ( 15)
 ...adapted threshold to:  5.668408343603160E-003
     18       2         3.33     0.52E-01  ( 13)
 ...adapted threshold to:  7.530212435076455E-003
     19       1         1.88     0.31E-01  ( 13)
 ...adapted threshold to:  9.738225372416198E-003
     20       1         1.83     0.23E-01  ( 13)
 ...adapted threshold to:  1.041970687009874E-002
     21       1         1.84     0.30E-01  ( 12)
 ...adapted threshold to:  1.043309519628738E-002
     22       1         1.84     0.68E-01  ( 15)
 ...adapted threshold to:  1.043607123468859E-002
     23       2         3.31     0.35E-01  ( 11)
 ...adapted threshold to:  1.043739901163515E-002
     24       3         4.87     0.19E-01  ( 10)
 ...adapted threshold to:  1.064447554470033E-002
     25       2         3.28     0.10E-01  ( 14)
                                                
     summary of start vectors generation:
     -------------------------------------------
     type of solution vectors      : RE0
     symmetry                      : a  
     number of vectors requested   :    15
     number of vectors generated   :    15
       -- restarted from file      :    15
     -------------------------------------------
                                                

    Iter  #Vectors  time (min)    max. residual 
    --------------------------------------------
 threshold for this macro iteration:  2.135517785799956E-003
     26      15        23.43     0.11E-01  ( 11)
     27       3         4.82     0.72E-02  ( 11)
     28       3         4.83     0.50E-02  ( 14)
     29       3         4.77     0.38E-02  ( 15)
     30       3         4.85     0.25E-02  ( 15)
     31       2         3.33     0.21E-02  ( 15)
     32       1         1.86     0.19E-02  ( 15)
                                                
     summary of start vectors generation:
     -------------------------------------------
     type of solution vectors      : RE0
     symmetry                      : a  
     number of vectors requested   :    15
     number of vectors generated   :    15
       -- restarted from file      :    15
     -------------------------------------------
                                                

    Iter  #Vectors  time (min)    max. residual 
    --------------------------------------------
 threshold for this macro iteration:  1.000000000000000E-003
     33      15        23.39     0.18E-02  ( 12)
     34       2         3.27     0.28E-02  ( 15)
     35       2         3.33     0.22E-02  ( 15)
     36       2         3.31     0.23E-02  ( 15)
     37       1         1.87     0.98E-03  ( 15)
    --------------------------------------------
    converged in 37 iterations

         Total time        279.59 minutes


 ===========================================




 Note that this is the intermediate result of a preoptimization!
 The convergence threshold was  0.1E-02 only!


 +==================================================================+
 | sym | multi | state |          ADC(2) excitation energies        |
 |     |       |       +--------------------------------------------+
 |     |       |       |   Hartree    |     eV       |     cm-1     |
 +==================================================================+
 | a   |   1   |   1   |    0.1386856 |      3.77383 |    30437.978 |
 | a   |   1   |   2   |    0.1593404 |      4.33587 |    34971.165 |
 | a   |   1   |   3   |    0.1631387 |      4.43923 |    35804.808 |
 | a   |   1   |   4   |    0.1696560 |      4.61657 |    37235.179 |
 | a   |   1   |   5   |    0.2032749 |      5.53139 |    44613.688 |
 | a   |   1   |   6   |    0.2095277 |      5.70154 |    45986.010 |
 | a   |   1   |   7   |    0.2211624 |      6.01814 |    48539.536 |
 | a   |   1   |   8   |    0.2233649 |      6.07807 |    49022.919 |
 | a   |   1   |   9   |    0.2324089 |      6.32417 |    51007.862 |
 | a   |   1   |  10   |    0.2393575 |      6.51325 |    52532.898 |
 | a   |   1   |  11   |    0.2395585 |      6.51872 |    52577.005 |
 | a   |   1   |  12   |    0.2457977 |      6.68849 |    53946.351 |
 | a   |   1   |  13   |    0.2495891 |      6.79167 |    54778.479 |
 | a   |   1   |  14   |    0.2546994 |      6.93072 |    55900.053 |
 | a   |   1   |  15   |    0.2602613 |      7.08207 |    57120.763 |
 +==================================================================+





  solve for ADC(2) excitation energies/vectors using a DIIS algorithm:
  =================================================================
                                                
     summary of start vectors generation:
     -------------------------------------------
     type of solution vectors      : RE0
     symmetry                      : a  
     number of vectors requested   :    15
     number of vectors generated   :    15
       -- restarted from file      :    15
     -------------------------------------------
                                                


 ========= DIIS CC RESPONSE SOLVER =========

    threshold for convergence:0.10E-05
    max. nb. of DIIS vectors :      10
    maximum number of simultaneous jacoby matrix transformations: 15

    Iter  #Vectors  time (min)   residual
    --------------------------------------
      1      15        23.29     0.52E-03  ( 12)    0.70E+00
      2      15        23.37     0.42E-03  ( 15)    0.75E-02
      3      15        23.59     0.39E-03  ( 15)    0.22E+00
      4      15        23.47     0.31E-03  ( 15)    0.56E-01
      5      15        23.37     0.22E-03  ( 15)    0.13E+00
      6      12        18.68     0.14E-03  ( 15)    0.36E-02
      7      10        15.65     0.96E-04  ( 15)    0.20E-01
      8       8        12.66     0.76E-04  ( 15)    0.43E-02
      9       8        12.68     0.58E-04  ( 15)    0.52E-02
     10       6         9.62     0.42E-04  ( 15)    0.54E-02
     11       5         7.75     0.32E-04  ( 15)    0.50E-02
     12       3         4.80     0.26E-04  ( 15)    0.50E-02
     13       3         4.79     0.22E-04  ( 15)    0.50E-02
     14       2         3.31     0.18E-04  ( 15)    0.50E-02
     15       2         3.32     0.15E-04  ( 15)    0.50E-02
     16       2         3.28     0.11E-04  ( 15)    0.50E-02
     17       2         3.32     0.75E-05  ( 15)    0.50E-02
     18       1         1.86     0.48E-05  ( 15)    0.50E-02
     19       1         1.85     0.35E-05  ( 15)    0.50E-02
     20       1         1.84     0.23E-05  ( 15)    0.50E-02
     21       1         1.87     0.16E-05  ( 15)    0.50E-02
     22       1         1.84     0.11E-05  ( 15)    0.50E-02
     23       1         1.85     0.90E-06  ( 15)    0.50E-02
    --------------------------------------
    converged in  23 iterations

   Total time        228.06 minutes


 ===========================================





 +================================================================================+
 | sym | multi | state |          ADC(2) excitation energies    |  %t1   |  %t2   |
 |     |       |       +----------------------------------------+--------+--------+
 |     |       |       |   Hartree    |    eV      |    cm-1    |    %   |    %   |
 +================================================================================+
 | a   |   1   |   1   |    0.1386865 |    3.77385 |  30438.171 |  89.70 |  10.30 |
 | a   |   1   |   2   |    0.1593437 |    4.33596 |  34971.902 |  88.26 |  11.74 |
 | a   |   1   |   3   |    0.1631397 |    4.43926 |  35805.017 |  90.10 |   9.90 |
 | a   |   1   |   4   |    0.1696570 |    4.61660 |  37235.418 |  89.40 |  10.60 |
 | a   |   1   |   5   |    0.2032763 |    5.53143 |  44613.993 |  88.45 |  11.55 |
 | a   |   1   |   6   |    0.2095274 |    5.70153 |  45985.954 |  91.73 |   8.27 |
 | a   |   1   |   7   |    0.2211627 |    6.01814 |  48539.600 |  88.79 |  11.21 |
 | a   |   1   |   8   |    0.2233637 |    6.07803 |  49022.657 |  90.83 |   9.17 |
 | a   |   1   |   9   |    0.2324109 |    6.32422 |  51008.305 |  89.76 |  10.24 |
 | a   |   1   |  10   |    0.2394283 |    6.51518 |  52548.435 |  87.52 |  12.48 |
 | a   |   1   |  11   |    0.2395750 |    6.51917 |  52580.625 |  87.32 |  12.68 |
 | a   |   1   |  12   |    0.2457791 |    6.68799 |  53942.282 |  90.38 |   9.62 |
 | a   |   1   |  13   |    0.2495897 |    6.79168 |  54778.614 |  91.70 |   8.30 |
 | a   |   1   |  14   |    0.2547463 |    6.93200 |  55910.355 |  84.37 |  15.63 |
 | a   |   1   |  15   |    0.2602492 |    7.08174 |  57118.097 |  91.08 |   8.92 |
 +================================================================================+


       Energy:     0.1386865 H      3.77385 eV    30438.171 cm-1

     +=======================================================================+
     | type: RE0                    symmetry: a               state:    1    |
     +-----------------------+-----------------------+-----------------------+
     | occ. orb.  index spin | vir. orb.  index spin |  coeff/|amp|     %    |
     +=======================+=======================+=======================+
     |   40 a       40       |   45 a       45       |   0.67956      46.2   |
     |   39 a       39       |   45 a       45       |   0.52487      27.5   |
     |   40 a       40       |   59 a       59       |  -0.21946       4.8   |
     |   39 a       39       |   59 a       59       |  -0.16944       2.9   |
     |   41 a       41       |   45 a       45       |  -0.15430       2.4   |
     |   40 a       40       |   60 a       60       |  -0.14192       2.0   |
     |   40 a       40       |   49 a       49       |   0.12161       1.5   |
     |   38 a       38       |   45 a       45       |   0.11776       1.4   |
     |   40 a       40       |   64 a       64       |   0.11509       1.3   |
     |   39 a       39       |   60 a       60       |  -0.10966       1.2   |
     |   40 a       40       |   46 a       46       |  -0.10808       1.2   |
     |   39 a       39       |   49 a       49       |   0.09380       0.9   |
     |   39 a       39       |   64 a       64       |   0.08895       0.8   |
     |   39 a       39       |   46 a       46       |  -0.08347       0.7   |
     |   40 a       40       |   56 a       56       |   0.07390       0.5   |
     +=======================+=======================+=======================+
     norm of printed elements:  0.95287


       Energy:     0.1593437 H      4.33596 eV    34971.902 cm-1

     +=======================================================================+
     | type: RE0                    symmetry: a               state:    2    |
     +-----------------------+-----------------------+-----------------------+
     | occ. orb.  index spin | vir. orb.  index spin |  coeff/|amp|     %    |
     +=======================+=======================+=======================+
     |   44 a       44       |   45 a       45       |   0.92608      85.8   |
     |   44 a       44       |   52 a       52       |  -0.20401       4.2   |
     |   44 a       44       |   46 a       46       |  -0.13311       1.8   |
     |   43 a       43       |   49 a       49       |  -0.10462       1.1   |
     |   43 a       43       |   52 a       52       |  -0.08383       0.7   |
     |   43 a       43       |   45 a       45       |  -0.07659       0.6   |
     |   37 a       37       |   45 a       45       |   0.06667       0.4   |
     |   44 a       44       |   56 a       56       |  -0.06613       0.4   |
     |   44 a       44       |   59 a       59       |  -0.05982       0.4   |
     +=======================+=======================+=======================+
     norm of printed elements:  0.95320


       Energy:     0.1631397 H      4.43926 eV    35805.017 cm-1

     +=======================================================================+
     | type: RE0                    symmetry: a               state:    3    |
     +-----------------------+-----------------------+-----------------------+
     | occ. orb.  index spin | vir. orb.  index spin |  coeff/|amp|     %    |
     +=======================+=======================+=======================+
     |   38 a       38       |   45 a       45       |   0.78440      61.5   |
     |   41 a       41       |   45 a       45       |  -0.35794      12.8   |
     |   38 a       38       |   59 a       59       |  -0.24375       5.9   |
     |   38 a       38       |   60 a       60       |  -0.15862       2.5   |
     |   38 a       38       |   49 a       49       |   0.14087       2.0   |
     |   40 a       40       |   45 a       45       |  -0.13874       1.9   |
     |   38 a       38       |   64 a       64       |   0.12655       1.6   |
     |   38 a       38       |   46 a       46       |  -0.12462       1.6   |
     |   41 a       41       |   59 a       59       |   0.10338       1.1   |
     |   39 a       39       |   45 a       45       |  -0.10261       1.1   |
     |   34 a       34       |   45 a       45       |  -0.09700       0.9   |
     |   38 a       38       |   56 a       56       |   0.07836       0.6   |
     |   26 a       26       |   45 a       45       |   0.06996       0.5   |
     |   41 a       41       |   60 a       60       |   0.06704       0.4   |
     |   41 a       41       |   49 a       49       |  -0.06293       0.4   |
     |   41 a       41       |   46 a       46       |   0.05675       0.3   |
     +=======================+=======================+=======================+
     norm of printed elements:  0.95195


       Energy:     0.1696570 H      4.61660 eV    37235.418 cm-1

     +=======================================================================+
     | type: RE0                    symmetry: a               state:    4    |
     +-----------------------+-----------------------+-----------------------+
     | occ. orb.  index spin | vir. orb.  index spin |  coeff/|amp|     %    |
     +=======================+=======================+=======================+
     |   44 a       44       |   49 a       49       |   0.58877      34.7   |
     |   44 a       44       |   52 a       52       |   0.52027      27.1   |
     |   43 a       43       |   45 a       45       |   0.47492      22.6   |
     |   44 a       44       |   45 a       45       |   0.18660       3.5   |
     |   44 a       44       |   51 a       51       |  -0.15047       2.3   |
     |   43 a       43       |   56 a       56       |  -0.13666       1.9   |
     |   44 a       44       |   50 a       50       |  -0.08912       0.8   |
     |   43 a       43       |   46 a       46       |  -0.07209       0.5   |
     |   44 a       44       |   60 a       60       |   0.07158       0.5   |
     |   43 a       43       |   49 a       49       |   0.07125       0.5   |
     |   44 a       44       |   64 a       64       |   0.06608       0.4   |
     |   44 a       44       |   59 a       59       |  -0.05848       0.3   |
     +=======================+=======================+=======================+
     norm of printed elements:  0.95014


       Energy:     0.2032763 H      5.53143 eV    44613.993 cm-1

     +=======================================================================+
     | type: RE0                    symmetry: a               state:    5    |
     +-----------------------+-----------------------+-----------------------+
     | occ. orb.  index spin | vir. orb.  index spin |  coeff/|amp|     %    |
     +=======================+=======================+=======================+
     |   43 a       43       |   45 a       45       |  -0.74067      54.9   |
     |   42 a       42       |   45 a       45       |   0.40904      16.7   |
     |   44 a       44       |   49 a       49       |   0.31362       9.8   |
     |   44 a       44       |   52 a       52       |   0.27173       7.4   |
     |   43 a       43       |   46 a       46       |   0.10968       1.2   |
     |   42 a       42       |   59 a       59       |  -0.08522       0.7   |
     |   44 a       44       |   51 a       51       |  -0.07696       0.6   |
     |   43 a       43       |   49 a       49       |  -0.07026       0.5   |
     |   42 a       42       |   46 a       46       |  -0.06432       0.4   |
     |   42 a       42       |   56 a       56       |   0.06138       0.4   |
     |   42 a       42       |   49 a       49       |   0.06133       0.4   |
     |   43 a       43       |   59 a       59       |   0.06131       0.4   |
     |   43 a       43       |   52 a       52       |   0.05918       0.4   |
     |   44 a       44       |   46 a       46       |  -0.05756       0.3   |
     |   39 a       39       |   49 a       49       |   0.05677       0.3   |
     |   39 a       39       |   52 a       52       |   0.05510       0.3   |
     |   42 a       42       |   60 a       60       |  -0.05365       0.3   |
     |   37 a       37       |   52 a       52       |   0.05114       0.3   |
     +=======================+=======================+=======================+
     norm of printed elements:  0.95225


       Energy:     0.2095274 H      5.70153 eV    45985.954 cm-1

     +=======================================================================+
     | type: RE0                    symmetry: a               state:    6    |
     +-----------------------+-----------------------+-----------------------+
     | occ. orb.  index spin | vir. orb.  index spin |  coeff/|amp|     %    |
     +=======================+=======================+=======================+
     |   44 a       44       |   46 a       46       |   0.75965      57.7   |
     |   44 a       44       |   47 a       47       |   0.44222      19.6   |
     |   44 a       44       |   50 a       50       |  -0.23078       5.3   |
     |   44 a       44       |   45 a       45       |   0.12781       1.6   |
     |   39 a       39       |   46 a       46       |   0.10585       1.1   |
     |   44 a       44       |   51 a       51       |  -0.10023       1.0   |
     |   44 a       44       |   54 a       54       |  -0.09923       1.0   |
     |   44 a       44       |   65 a       65       |  -0.09841       1.0   |
     |   44 a       44       |   71 a       71       |   0.09832       1.0   |
     |   37 a       37       |   46 a       46       |   0.09292       0.9   |
     |   44 a       44       |   63 a       63       |   0.08585       0.7   |
     |   44 a       44       |   72 a       72       |   0.08369       0.7   |
     |   40 a       40       |   46 a       46       |  -0.08223       0.7   |
     |   37 a       37       |   47 a       47       |   0.07693       0.6   |
     |   44 a       44       |   75 a       75       |   0.07228       0.5   |
     |   43 a       43       |   47 a       47       |   0.06863       0.5   |
     |   44 a       44       |   48 a       48       |  -0.06326       0.4   |
     |   44 a       44       |   73 a       73       |  -0.06199       0.4   |
     |   39 a       39       |   47 a       47       |   0.05564       0.3   |
     |   44 a       44       |   81 a       81       |  -0.05301       0.3   |
     +=======================+=======================+=======================+
     norm of printed elements:  0.95205


       Energy:     0.2211627 H      6.01814 eV    48539.600 cm-1

     +=======================================================================+
     | type: RE0                    symmetry: a               state:    7    |
     +-----------------------+-----------------------+-----------------------+
     | occ. orb.  index spin | vir. orb.  index spin |  coeff/|amp|     %    |
     +=======================+=======================+=======================+
     |   42 a       42       |   45 a       45       |   0.81640      66.7   |
     |   43 a       43       |   45 a       45       |   0.34797      12.1   |
     |   44 a       44       |   49 a       49       |  -0.16638       2.8   |
     |   42 a       42       |   59 a       59       |  -0.14815       2.2   |
     |   44 a       44       |   52 a       52       |  -0.13503       1.8   |
     |   42 a       42       |   46 a       46       |  -0.12761       1.6   |
     |   42 a       42       |   49 a       49       |   0.11937       1.4   |
     |   42 a       42       |   56 a       56       |   0.09456       0.9   |
     |   42 a       42       |   60 a       60       |  -0.09296       0.9   |
     |   42 a       42       |   64 a       64       |   0.07461       0.6   |
     |   39 a       39       |   49 a       49       |  -0.06972       0.5   |
     |   40 a       40       |   52 a       52       |   0.06315       0.4   |
     |   39 a       39       |   52 a       52       |  -0.06240       0.4   |
     |   40 a       40       |   49 a       49       |   0.05862       0.3   |
     |   44 a       44       |   51 a       51       |   0.05397       0.3   |
     |   44 a       44       |   59 a       59       |   0.05384       0.3   |
     |   43 a       43       |   46 a       46       |  -0.04660       0.2   |
     |   39 a       39       |   51 a       51       |   0.04483       0.2   |
     |   37 a       37       |   52 a       52       |  -0.04270       0.2   |
     |   43 a       43       |   56 a       56       |  -0.04223       0.2   |
     +=======================+=======================+=======================+
     norm of printed elements:  0.93891


       Energy:     0.2233637 H      6.07803 eV    49022.657 cm-1

     +=======================================================================+
     | type: RE0                    symmetry: a               state:    8    |
     +-----------------------+-----------------------+-----------------------+
     | occ. orb.  index spin | vir. orb.  index spin |  coeff/|amp|     %    |
     +=======================+=======================+=======================+
     |   44 a       44       |   47 a       47       |   0.60442      36.5   |
     |   44 a       44       |   63 a       63       |  -0.52141      27.2   |
     |   44 a       44       |   48 a       48       |   0.29191       8.5   |
     |   44 a       44       |   46 a       46       |  -0.24094       5.8   |
     |   44 a       44       |   58 a       58       |  -0.18509       3.4   |
     |   44 a       44       |   62 a       62       |  -0.15545       2.4   |
     |   44 a       44       |   55 a       55       |   0.14271       2.0   |
     |   44 a       44       |   51 a       51       |   0.11628       1.4   |
     |   44 a       44       |   76 a       76       |  -0.10875       1.2   |
     |   43 a       43       |   63 a       63       |   0.10716       1.1   |
     |   43 a       43       |   46 a       46       |   0.09799       1.0   |
     |   44 a       44       |   54 a       54       |   0.09246       0.9   |
     |   39 a       39       |   63 a       63       |  -0.06659       0.4   |
     |   44 a       44       |   50 a       50       |  -0.05981       0.4   |
     |   39 a       39       |   47 a       47       |   0.05907       0.3   |
     |   44 a       44       |   85 a       85       |   0.05382       0.3   |
     |   44 a       44       |   57 a       57       |   0.05176       0.3   |
     |   40 a       40       |   63 a       63       |   0.05095       0.3   |
     |   44 a       44       |   78 a       78       |  -0.05057       0.3   |
     |   44 a       44       |   92 a       92       |   0.04945       0.2   |
     +=======================+=======================+=======================+
     norm of printed elements:  0.93889


       Energy:     0.2324109 H      6.32422 eV    51008.305 cm-1

     +=======================================================================+
     | type: RE0                    symmetry: a               state:    9    |
     +-----------------------+-----------------------+-----------------------+
     | occ. orb.  index spin | vir. orb.  index spin |  coeff/|amp|     %    |
     +=======================+=======================+=======================+
     |   44 a       44       |   56 a       56       |   0.50481      25.5   |
     |   44 a       44       |   59 a       59       |  -0.47669      22.7   |
     |   43 a       43       |   49 a       49       |   0.35137      12.3   |
     |   44 a       44       |   60 a       60       |  -0.31353       9.8   |
     |   43 a       43       |   52 a       52       |   0.29790       8.9   |
     |   44 a       44       |   64 a       64       |   0.16682       2.8   |
     |   39 a       39       |   45 a       45       |  -0.15652       2.4   |
     |   44 a       44       |   68 a       68       |  -0.12670       1.6   |
     |   40 a       40       |   45 a       45       |   0.12033       1.4   |
     |   44 a       44       |   48 a       48       |   0.10984       1.2   |
     |   44 a       44       |   53 a       53       |   0.08789       0.8   |
     |   44 a       44       |   74 a       74       |  -0.08755       0.8   |
     |   43 a       43       |   51 a       51       |  -0.08709       0.8   |
     |   44 a       44       |   61 a       61       |   0.08429       0.7   |
     |   37 a       37       |   45 a       45       |  -0.07722       0.6   |
     |   43 a       43       |   59 a       59       |  -0.05496       0.3   |
     |   44 a       44       |   67 a       67       |   0.04967       0.2   |
     |   44 a       44       |   54 a       54       |   0.04961       0.2   |
     |   44 a       44       |   51 a       51       |  -0.04714       0.2   |
     |   43 a       43       |   50 a       50       |  -0.04656       0.2   |
     +=======================+=======================+=======================+
     norm of printed elements:  0.93588


       Energy:     0.2394283 H      6.51518 eV    52548.435 cm-1

     +=======================================================================+
     | type: RE0                    symmetry: a               state:   10    |
     +-----------------------+-----------------------+-----------------------+
     | occ. orb.  index spin | vir. orb.  index spin |  coeff/|amp|     %    |
     +=======================+=======================+=======================+
     |   44 a       44       |   48 a       48       |   0.50051      25.1   |
     |   40 a       40       |   49 a       49       |   0.36218      13.1   |
     |   40 a       40       |   52 a       52       |   0.33559      11.3   |
     |   44 a       44       |   53 a       53       |   0.29784       8.9   |
     |   44 a       44       |   51 a       51       |  -0.28576       8.2   |
     |   39 a       39       |   49 a       49       |   0.28182       7.9   |
     |   39 a       39       |   52 a       52       |   0.26105       6.8   |
     |   44 a       44       |   47 a       47       |  -0.15522       2.4   |
     |   41 a       41       |   49 a       49       |  -0.10108       1.0   |
     |   44 a       44       |   46 a       46       |   0.09907       1.0   |
     |   41 a       41       |   52 a       52       |  -0.09797       1.0   |
     |   39 a       39       |   51 a       51       |  -0.08783       0.8   |
     |   40 a       40       |   51 a       51       |  -0.08374       0.7   |
     |   43 a       43       |   49 a       49       |  -0.07891       0.6   |
     |   43 a       43       |   46 a       46       |  -0.07434       0.6   |
     |   44 a       44       |   73 a       73       |  -0.06978       0.5   |
     |   43 a       43       |   52 a       52       |  -0.06958       0.5   |
     |   44 a       44       |   71 a       71       |  -0.06535       0.4   |
     |   44 a       44       |   75 a       75       |   0.06519       0.4   |
     |   40 a       40       |   50 a       50       |  -0.06493       0.4   |
     +=======================+=======================+=======================+
     norm of printed elements:  0.91489


       Energy:     0.2395750 H      6.51917 eV    52580.625 cm-1

     +=======================================================================+
     | type: RE0                    symmetry: a               state:   11    |
     +-----------------------+-----------------------+-----------------------+
     | occ. orb.  index spin | vir. orb.  index spin |  coeff/|amp|     %    |
     +=======================+=======================+=======================+
     |   44 a       44       |   48 a       48       |  -0.49152      24.2   |
     |   40 a       40       |   49 a       49       |   0.37553      14.1   |
     |   40 a       40       |   52 a       52       |   0.34831      12.1   |
     |   44 a       44       |   53 a       53       |  -0.29140       8.5   |
     |   39 a       39       |   49 a       49       |   0.28689       8.2   |
     |   44 a       44       |   51 a       51       |   0.27692       7.7   |
     |   39 a       39       |   52 a       52       |   0.26588       7.1   |
     |   44 a       44       |   47 a       47       |   0.14059       2.0   |
     |   40 a       40       |   51 a       51       |  -0.10941       1.2   |
     |   41 a       41       |   49 a       49       |  -0.10172       1.0   |
     |   41 a       41       |   52 a       52       |  -0.09758       1.0   |
     |   44 a       44       |   46 a       46       |  -0.09559       0.9   |
     |   43 a       43       |   49 a       49       |   0.07637       0.6   |
     |   43 a       43       |   46 a       46       |   0.07312       0.5   |
     |   43 a       43       |   52 a       52       |   0.06750       0.5   |
     |   44 a       44       |   73 a       73       |   0.06717       0.5   |
     |   44 a       44       |   75 a       75       |  -0.06442       0.4   |
     |   44 a       44       |   71 a       71       |   0.06340       0.4   |
     |   39 a       39       |   51 a       51       |  -0.06279       0.4   |
     |   44 a       44       |   50 a       50       |   0.05995       0.4   |
     +=======================+=======================+=======================+
     norm of printed elements:  0.91522


       Energy:     0.2457791 H      6.68799 eV    53942.282 cm-1

     +=======================================================================+
     | type: RE0                    symmetry: a               state:   12    |
     +-----------------------+-----------------------+-----------------------+
     | occ. orb.  index spin | vir. orb.  index spin |  coeff/|amp|     %    |
     +=======================+=======================+=======================+
     |   43 a       43       |   49 a       49       |   0.60029      36.0   |
     |   43 a       43       |   52 a       52       |   0.50527      25.5   |
     |   44 a       44       |   56 a       56       |  -0.27992       7.8   |
     |   44 a       44       |   59 a       59       |   0.25747       6.6   |
     |   44 a       44       |   60 a       60       |   0.15733       2.5   |
     |   43 a       43       |   51 a       51       |  -0.14801       2.2   |
     |   39 a       39       |   45 a       45       |   0.12038       1.4   |
     |   44 a       44       |   45 a       45       |   0.10239       1.0   |
     |   40 a       40       |   45 a       45       |  -0.09246       0.9   |
     |   37 a       37       |   49 a       49       |   0.08397       0.7   |
     |   43 a       43       |   50 a       50       |  -0.08385       0.7   |
     |   43 a       43       |   56 a       56       |  -0.08237       0.7   |
     |   43 a       43       |   60 a       60       |   0.08155       0.7   |
     |   44 a       44       |   68 a       68       |   0.07917       0.6   |
     |   42 a       42       |   49 a       49       |  -0.07617       0.6   |
     |   44 a       44       |   49 a       49       |  -0.07531       0.6   |
     |   43 a       43       |   45 a       45       |  -0.07264       0.5   |
     |   37 a       37       |   52 a       52       |   0.07130       0.5   |
     |   42 a       42       |   52 a       52       |  -0.06958       0.5   |
     |   35 a       35       |   45 a       45       |  -0.06425       0.4   |
     +=======================+=======================+=======================+
     norm of printed elements:  0.90507


       Energy:     0.2495897 H      6.79168 eV    54778.614 cm-1

     +=======================================================================+
     | type: RE0                    symmetry: a               state:   13    |
     +-----------------------+-----------------------+-----------------------+
     | occ. orb.  index spin | vir. orb.  index spin |  coeff/|amp|     %    |
     +=======================+=======================+=======================+
     |   44 a       44       |   47 a       47       |   0.37129      13.8   |
     |   44 a       44       |   50 a       50       |   0.36579      13.4   |
     |   44 a       44       |   55 a       55       |  -0.34533      11.9   |
     |   44 a       44       |   63 a       63       |   0.27183       7.4   |
     |   44 a       44       |   48 a       48       |   0.26362       6.9   |
     |   43 a       43       |   63 a       63       |  -0.25050       6.3   |
     |   43 a       43       |   47 a       47       |   0.22619       5.1   |
     |   44 a       44       |   51 a       51       |   0.20111       4.0   |
     |   44 a       44       |   58 a       58       |   0.18426       3.4   |
     |   44 a       44       |   53 a       53       |   0.13903       1.9   |
     |   43 a       43       |   48 a       48       |   0.13177       1.7   |
     |   44 a       44       |   62 a       62       |   0.13134       1.7   |
     |   44 a       44       |   61 a       61       |   0.13094       1.7   |
     |   44 a       44       |   46 a       46       |  -0.10968       1.2   |
     |   43 a       43       |   58 a       58       |  -0.10816       1.2   |
     |   43 a       43       |   55 a       55       |   0.09949       1.0   |
     |   44 a       44       |   66 a       66       |   0.09662       0.9   |
     |   44 a       44       |   78 a       78       |  -0.09015       0.8   |
     |   44 a       44       |   57 a       57       |  -0.08709       0.8   |
     |   44 a       44       |   73 a       73       |  -0.07897       0.6   |
     +=======================+=======================+=======================+
     norm of printed elements:  0.85860


       Energy:     0.2547463 H      6.93200 eV    55910.355 cm-1

     +=======================================================================+
     | type: RE0                    symmetry: a               state:   14    |
     +-----------------------+-----------------------+-----------------------+
     | occ. orb.  index spin | vir. orb.  index spin |  coeff/|amp|     %    |
     +=======================+=======================+=======================+
     |   38 a       38       |   49 a       49       |   0.57206      32.7   |
     |   38 a       38       |   52 a       52       |   0.53144      28.2   |
     |   41 a       41       |   49 a       49       |  -0.35556      12.6   |
     |   41 a       41       |   52 a       52       |  -0.33763      11.4   |
     |   38 a       38       |   51 a       51       |  -0.15088       2.3   |
     |   40 a       40       |   49 a       49       |  -0.12842       1.6   |
     |   40 a       40       |   52 a       52       |  -0.11587       1.3   |
     |   41 a       41       |   51 a       51       |   0.09535       0.9   |
     |   39 a       39       |   49 a       49       |  -0.09407       0.9   |
     |   38 a       38       |   50 a       50       |  -0.09072       0.8   |
     |   41 a       41       |   45 a       45       |   0.09011       0.8   |
     |   39 a       39       |   52 a       52       |  -0.08461       0.7   |
     |   38 a       38       |   45 a       45       |  -0.07577       0.6   |
     |   38 a       38       |   64 a       64       |   0.06845       0.5   |
     +=======================+=======================+=======================+
     norm of printed elements:  0.95465


       Energy:     0.2602492 H      7.08174 eV    57118.097 cm-1

     +=======================================================================+
     | type: RE0                    symmetry: a               state:   15    |
     +-----------------------+-----------------------+-----------------------+
     | occ. orb.  index spin | vir. orb.  index spin |  coeff/|amp|     %    |
     +=======================+=======================+=======================+
     |   43 a       43       |   46 a       46       |   0.62200      38.7   |
     |   43 a       43       |   63 a       63       |   0.29258       8.6   |
     |   44 a       44       |   51 a       51       |  -0.25033       6.3   |
     |   44 a       44       |   53 a       53       |   0.24848       6.2   |
     |   44 a       44       |   55 a       55       |  -0.22641       5.1   |
     |   44 a       44       |   46 a       46       |  -0.20000       4.0   |
     |   44 a       44       |   58 a       58       |   0.17033       2.9   |
     |   43 a       43       |   53 a       53       |   0.15395       2.4   |
     |   44 a       44       |   50 a       50       |  -0.14752       2.2   |
     |   43 a       43       |   51 a       51       |  -0.14500       2.1   |
     |   44 a       44       |   63 a       63       |   0.12980       1.7   |
     |   44 a       44       |   54 a       54       |  -0.12438       1.5   |
     |   43 a       43       |   50 a       50       |  -0.11820       1.4   |
     |   44 a       44       |   47 a       47       |   0.11259       1.3   |
     |   44 a       44       |   48 a       48       |  -0.10723       1.1   |
     |   43 a       43       |   62 a       62       |   0.09988       1.0   |
     |   37 a       37       |   46 a       46       |   0.09251       0.9   |
     |   44 a       44       |   65 a       65       |   0.09166       0.8   |
     |   44 a       44       |   75 a       75       |   0.09157       0.8   |
     |   43 a       43       |   45 a       45       |   0.08722       0.8   |
     +=======================+=======================+=======================+
     norm of printed elements:  0.89706



     Info: copy ADC(2) right eigenvectors into left eigenvector files.


                    ========   CC DENSITY MODULE   ========

                      current wave-function model: ADC(2)  

  calculating overlap between   15 left and right vector(s)
    density nr.      cpu/min        wall/min    L     R
   ------------------------------------------------------
         1             1.27            1.33    LE0    RE0 
         2             1.27            1.33    LE0    RE0 
         3             1.28            1.34    LE0    RE0 
         4             1.29            1.34    LE0    RE0 
         5             1.28            1.33    LE0    RE0 
         6             1.28            1.33    LE0    RE0 
         7             1.27            1.32    LE0    RE0 
         8             1.29            1.34    LE0    RE0 
         9             1.27            1.32    LE0    RE0 
        10             1.27            1.32    LE0    RE0 
        11             1.28            1.33    LE0    RE0 
        12             1.28            1.33    LE0    RE0 
        13             1.28            1.33    LE0    RE0 
        14             1.28            1.34    LE0    RE0 
        15             1.28            1.33    LE0    RE0 
   ------------------------------------------------------
     time in cc_1den       cpu: 19 min 12 s  wall: 19 min 59 s  ratio:  1.0



     +==========================================================+
     |   contributions of excitation levels to excited states   |
     |     wavefunctions as computed from the <L|R> overlap     |
     +----------------------------------------------------------+
     | sym | multi | state |    E / eV  | % singles | % doubles |
     +==========================================================+
     | a   |   1   |   1   |    3.77385 |   89.70   |   10.30   |
     | a   |   1   |   2   |    4.33596 |   88.26   |   11.74   |
     | a   |   1   |   3   |    4.43926 |   90.10   |    9.90   |
     | a   |   1   |   4   |    4.61660 |   89.40   |   10.60   |
     | a   |   1   |   5   |    5.53143 |   88.45   |   11.55   |
     | a   |   1   |   6   |    5.70153 |   91.73   |    8.27   |
     | a   |   1   |   7   |    6.01814 |   88.79   |   11.21   |
     | a   |   1   |   8   |    6.07803 |   90.83   |    9.17   |
     | a   |   1   |   9   |    6.32422 |   89.76   |   10.24   |
     | a   |   1   |  10   |    6.51518 |   87.55   |   12.45   |
     | a   |   1   |  11   |    6.51917 |   87.33   |   12.67   |
     | a   |   1   |  12   |    6.68799 |   90.38   |    9.62   |
     | a   |   1   |  13   |    6.79168 |   91.70   |    8.30   |
     | a   |   1   |  14   |    6.93200 |   84.37   |   15.63   |
     | a   |   1   |  15   |    7.08174 |   91.08   |    8.92   |
     +==========================================================+



      The semi-canonical algorithm will be used for densities


                    ========   CC DENSITY MODULE   ========

                      current wave-function model: ADC(2)  

  calculating    15 xi densities

   a semicanonical algorithm will be used

    density nr.      cpu/min        wall/min    L     R
   ------------------------------------------------------
         1             2.24            2.42    LE0    R0  
         2             2.23            2.43    LE0    R0  
         3             2.24            2.42    LE0    R0  
         4             2.24            2.43    LE0    R0  
         5             2.23            2.41    LE0    R0  
         6             2.25            2.43    LE0    R0  
         7             2.24            2.42    LE0    R0  
         8             2.23            2.41    LE0    R0  
         9             2.24            2.41    LE0    R0  
        10             2.24            2.42    LE0    R0  
        11             2.25            2.43    LE0    R0  
        12             2.24            2.41    LE0    R0  
        13             2.24            2.44    LE0    R0  
        14             2.23            2.41    LE0    R0  
        15             2.21            2.39    LE0    R0  
   ------------------------------------------------------
     time in cc_1den       cpu: 33 min 33 s  wall: 36 min 17 s  ratio:  0.9


 **************************************************************
 *                                                            *
 *<<<<<<<<<<<<  ONE-PHOTON ABSORPTION STRENGTHS  >>>>>>>>>>>>>*
 *                                                            *
 **************************************************************



  +=========================================================================+
  |  Transition                                             model: ADC(2)   |
  |    number, symmetry, multiplicity:    1 a    1                          |
  |    frequency :   0.1386865135 a.u.     3.77385 e.V.     30438.2 rcm     |
  +=========================================================================+

     +-----------+-----------------+-----------------+---------------------+
     | operator  |   left moment   |  right moment   | transition strength |
     +-----------+-----------------+-----------------+---------------------+
     | xdiplen   |     -0.00351040 |     -0.00351040 |       0.00001232    |
     | ydiplen   |     -0.00091242 |     -0.00091242 |       0.00000083    |
     | zdiplen   |      0.00059717 |      0.00059717 |       0.00000036    |
     | xdipvel   |     -0.00049237 |      0.00049237 |       0.00000024    |
     | ydipvel   |     -0.00013727 |      0.00013727 |       0.00000002    |
     | zdipvel   |      0.00001170 |     -0.00001170 |       0.00000000    |
     | xangmom   |      0.53485958 |     -0.53485958 |       0.28607477    |
     | yangmom   |      0.17286604 |     -0.17286604 |       0.02988267    |
     | zangmom   |     -0.00041474 |      0.00041474 |       0.00000017    |
     +-----------+-----------------+-----------------+---------------------+
 
       oscillator strength (length gauge)   :      0.00000125
       oscillator strength (velocity gauge) :      0.00000126
       oscillator strength (mixed gauge)    :      0.00000124
 
       rotator strength (length gauge)      :     -0.00101777 a.u.
       Rotator strength (length gauge)      :     -0.47982175 10^(-40)*erg*cm^3
       rotator strength (velocity gauge)    :     -0.00103501 a.u.
       Rotator strength (velocity gauge)    :     -0.48794672 10^(-40)*erg*cm^3
 


  +=========================================================================+
  |  Transition                                             model: ADC(2)   |
  |    number, symmetry, multiplicity:    2 a    1                          |
  |    frequency :   0.1593437112 a.u.     4.33596 e.V.     34971.9 rcm     |
  +=========================================================================+

     +-----------+-----------------+-----------------+---------------------+
     | operator  |   left moment   |  right moment   | transition strength |
     +-----------+-----------------+-----------------+---------------------+
     | xdiplen   |     -1.79994190 |     -1.79994190 |       3.23979083    |
     | ydiplen   |     -0.45736244 |     -0.45736244 |       0.20918040    |
     | zdiplen   |      0.01453114 |      0.01453114 |       0.00021115    |
     | xdipvel   |     -0.28499039 |      0.28499039 |       0.08121952    |
     | ydipvel   |     -0.07682229 |      0.07682229 |       0.00590166    |
     | zdipvel   |      0.00354153 |     -0.00354153 |       0.00001254    |
     | xangmom   |     -0.00264114 |      0.00264114 |       0.00000698    |
     | yangmom   |     -0.00680740 |      0.00680740 |       0.00004634    |
     | zangmom   |     -0.15912089 |      0.15912089 |       0.02531946    |
     +-----------+-----------------+-----------------+---------------------+
 
       oscillator strength (length gauge)   :      0.36640368
       oscillator strength (velocity gauge) :      0.36455252
       oscillator strength (mixed gauge)    :      0.36543549
 
       rotator strength (length gauge)      :      0.00277757 a.u.
       Rotator strength (length gauge)      :      1.30946782 10^(-40)*erg*cm^3
       rotator strength (velocity gauge)    :      0.00223457 a.u.
       Rotator strength (velocity gauge)    :      1.05347224 10^(-40)*erg*cm^3
 


  +=========================================================================+
  |  Transition                                             model: ADC(2)   |
  |    number, symmetry, multiplicity:    3 a    1                          |
  |    frequency :   0.1631396595 a.u.     4.43926 e.V.     35805.0 rcm     |
  +=========================================================================+

     +-----------+-----------------+-----------------+---------------------+
     | operator  |   left moment   |  right moment   | transition strength |
     +-----------+-----------------+-----------------+---------------------+
     | xdiplen   |     -0.00705350 |     -0.00705350 |       0.00004975    |
     | ydiplen   |     -0.00135018 |     -0.00135018 |       0.00000182    |
     | zdiplen   |     -0.06427170 |     -0.06427170 |       0.00413085    |
     | xdipvel   |     -0.00113205 |      0.00113205 |       0.00000128    |
     | ydipvel   |     -0.00021355 |      0.00021355 |       0.00000005    |
     | zdipvel   |     -0.01479448 |      0.01479448 |       0.00021888    |
     | xangmom   |      0.34993676 |     -0.34993676 |       0.12245573    |
     | yangmom   |     -1.07125642 |      1.07125642 |       1.14759032    |
     | zangmom   |     -0.00439471 |      0.00439471 |       0.00001931    |
     +-----------+-----------------+-----------------+---------------------+
 
       oscillator strength (length gauge)   :      0.00045488
       oscillator strength (velocity gauge) :      0.00089986
       oscillator strength (mixed gauge)    :      0.00063943
 
       rotator strength (length gauge)      :     -0.00036972 a.u.
       Rotator strength (length gauge)      :     -0.17430099 10^(-40)*erg*cm^3
       rotator strength (velocity gauge)    :     -0.00031374 a.u.
       Rotator strength (velocity gauge)    :     -0.14791142 10^(-40)*erg*cm^3
 


  +=========================================================================+
  |  Transition                                             model: ADC(2)   |
  |    number, symmetry, multiplicity:    4 a    1                          |
  |    frequency :   0.1696570475 a.u.     4.61660 e.V.     37235.4 rcm     |
  +=========================================================================+

     +-----------+-----------------+-----------------+---------------------+
     | operator  |   left moment   |  right moment   | transition strength |
     +-----------+-----------------+-----------------+---------------------+
     | xdiplen   |     -0.43226675 |     -0.43226675 |       0.18685455    |
     | ydiplen   |     -0.55980318 |     -0.55980318 |       0.31337960    |
     | zdiplen   |      0.00614847 |      0.00614847 |       0.00003780    |
     | xdipvel   |     -0.07351280 |      0.07351280 |       0.00540413    |
     | ydipvel   |     -0.09155224 |      0.09155224 |       0.00838181    |
     | zdipvel   |      0.00180421 |     -0.00180421 |       0.00000326    |
     | xangmom   |      0.00854423 |     -0.00854423 |       0.00007300    |
     | yangmom   |     -0.01056728 |      0.01056728 |       0.00011167    |
     | zangmom   |      0.68166430 |     -0.68166430 |       0.46466622    |
     +-----------+-----------------+-----------------+---------------------+
 
       oscillator strength (length gauge)   :      0.05658311
       oscillator strength (velocity gauge) :      0.05418460
       oscillator strength (mixed gauge)    :      0.05535965
 
       rotator strength (length gauge)      :      0.00320670 a.u.
       Rotator strength (length gauge)      :      1.51177857 10^(-40)*erg*cm^3
       rotator strength (velocity gauge)    :      0.00462467 a.u.
       Rotator strength (velocity gauge)    :      2.18027167 10^(-40)*erg*cm^3
 


  +=========================================================================+
  |  Transition                                             model: ADC(2)   |
  |    number, symmetry, multiplicity:    5 a    1                          |
  |    frequency :   0.2032763101 a.u.     5.53143 e.V.     44614.0 rcm     |
  +=========================================================================+

     +-----------+-----------------+-----------------+---------------------+
     | operator  |   left moment   |  right moment   | transition strength |
     +-----------+-----------------+-----------------+---------------------+
     | xdiplen   |      0.34963811 |      0.34963811 |       0.12224681    |
     | ydiplen   |     -0.43326619 |     -0.43326619 |       0.18771959    |
     | zdiplen   |      0.00787051 |      0.00787051 |       0.00006194    |
     | xdipvel   |      0.05773972 |     -0.05773972 |       0.00333387    |
     | ydipvel   |     -0.05414879 |      0.05414879 |       0.00293209    |
     | zdipvel   |      0.00247570 |     -0.00247570 |       0.00000613    |
     | xangmom   |      0.00668843 |     -0.00668843 |       0.00004474    |
     | yangmom   |     -0.03120350 |      0.03120350 |       0.00097366    |
     | zangmom   |     -0.47587553 |      0.47587553 |       0.22645752    |
     +-----------+-----------------+-----------------+---------------------+
 
       oscillator strength (length gauge)   :      0.04201428
       oscillator strength (velocity gauge) :      0.02057002
       oscillator strength (mixed gauge)    :      0.02911222
 
       rotator strength (length gauge)      :      0.00605629 a.u.
       Rotator strength (length gauge)      :      2.85519673 10^(-40)*erg*cm^3
       rotator strength (velocity gauge)    :      0.00220806 a.u.
       Rotator strength (velocity gauge)    :      1.04097675 10^(-40)*erg*cm^3
 


  +=========================================================================+
  |  Transition                                             model: ADC(2)   |
  |    number, symmetry, multiplicity:    6 a    1                          |
  |    frequency :   0.2095274240 a.u.     5.70153 e.V.     45986.0 rcm     |
  +=========================================================================+

     +-----------+-----------------+-----------------+---------------------+
     | operator  |   left moment   |  right moment   | transition strength |
     +-----------+-----------------+-----------------+---------------------+
     | xdiplen   |      0.01091951 |      0.01091951 |       0.00011924    |
     | ydiplen   |     -0.00766650 |     -0.00766650 |       0.00005878    |
     | zdiplen   |     -0.19952770 |     -0.19952770 |       0.03981130    |
     | xdipvel   |      0.00195968 |     -0.00195968 |       0.00000384    |
     | ydipvel   |      0.00103515 |     -0.00103515 |       0.00000107    |
     | zdipvel   |     -0.05616154 |      0.05616154 |       0.00315412    |
     | xangmom   |      0.02000790 |     -0.02000790 |       0.00040032    |
     | yangmom   |      0.59071783 |     -0.59071783 |       0.34894755    |
     | zangmom   |     -0.07025478 |      0.07025478 |       0.00493573    |
     +-----------+-----------------+-----------------+---------------------+
 
       oscillator strength (length gauge)   :      0.00558591
       oscillator strength (velocity gauge) :      0.01005129
       oscillator strength (mixed gauge)    :      0.00747950
 
       rotator strength (length gauge)      :      0.00485376 a.u.
       Rotator strength (length gauge)      :      2.28827173 10^(-40)*erg*cm^3
       rotator strength (velocity gauge)    :      0.01096827 a.u.
       Rotator strength (velocity gauge)    :      5.17092043 10^(-40)*erg*cm^3
 


  +=========================================================================+
  |  Transition                                             model: ADC(2)   |
  |    number, symmetry, multiplicity:    7 a    1                          |
  |    frequency :   0.2211626895 a.u.     6.01814 e.V.     48539.6 rcm     |
  +=========================================================================+

     +-----------+-----------------+-----------------+---------------------+
     | operator  |   left moment   |  right moment   | transition strength |
     +-----------+-----------------+-----------------+---------------------+
     | xdiplen   |     -0.57973223 |     -0.57973223 |       0.33608946    |
     | ydiplen   |      1.30094534 |      1.30094534 |       1.69245879    |
     | zdiplen   |      0.01566981 |      0.01566981 |       0.00024554    |
     | xdipvel   |     -0.12431961 |      0.12431961 |       0.01545537    |
     | ydipvel   |      0.28107099 |     -0.28107099 |       0.07900090    |
     | zdipvel   |      0.00414620 |     -0.00414620 |       0.00001719    |
     | xangmom   |     -0.00151781 |      0.00151781 |       0.00000230    |
     | yangmom   |     -0.02174464 |      0.02174464 |       0.00047283    |
     | zangmom   |     -1.36452178 |      1.36452178 |       1.86191968    |
     +-----------+-----------------+-----------------+---------------------+
 
       oscillator strength (length gauge)   :      0.29912899
       oscillator strength (velocity gauge) :      0.28477816
       oscillator strength (mixed gauge)    :      0.29186336
 
       rotator strength (length gauge)      :     -0.02439523 a.u.
       Rotator strength (length gauge)      :    -11.50097522 10^(-40)*erg*cm^3
       rotator strength (velocity gauge)    :     -0.02618136 a.u.
       Rotator strength (velocity gauge)    :    -12.34303349 10^(-40)*erg*cm^3
 


  +=========================================================================+
  |  Transition                                             model: ADC(2)   |
  |    number, symmetry, multiplicity:    8 a    1                          |
  |    frequency :   0.2233636616 a.u.     6.07803 e.V.     49022.7 rcm     |
  +=========================================================================+

     +-----------+-----------------+-----------------+---------------------+
     | operator  |   left moment   |  right moment   | transition strength |
     +-----------+-----------------+-----------------+---------------------+
     | xdiplen   |      0.02804609 |      0.02804609 |       0.00078658    |
     | ydiplen   |     -0.07686849 |     -0.07686849 |       0.00590876    |
     | zdiplen   |      0.10559189 |      0.10559189 |       0.01114965    |
     | xdipvel   |      0.00522200 |     -0.00522200 |       0.00002727    |
     | ydipvel   |     -0.01663263 |      0.01663263 |       0.00027664    |
     | zdipvel   |      0.02963838 |     -0.02963838 |       0.00087843    |
     | xangmom   |      0.01721235 |     -0.01721235 |       0.00029626    |
     | yangmom   |     -0.15458093 |      0.15458093 |       0.02389527    |
     | zangmom   |      0.05591671 |     -0.05591671 |       0.00312668    |
     +-----------+-----------------+-----------------+---------------------+
 
       oscillator strength (length gauge)   :      0.00265728
       oscillator strength (velocity gauge) :      0.00352892
       oscillator strength (mixed gauge)    :      0.00303637
 
       rotator strength (length gauge)      :      0.00913475 a.u.
       Rotator strength (length gauge)      :      4.30651732 10^(-40)*erg*cm^3
       rotator strength (velocity gauge)    :      0.00966641 a.u.
       Rotator strength (velocity gauge)    :      4.55716881 10^(-40)*erg*cm^3
 


  +=========================================================================+
  |  Transition                                             model: ADC(2)   |
  |    number, symmetry, multiplicity:    9 a    1                          |
  |    frequency :   0.2324109369 a.u.     6.32422 e.V.     51008.3 rcm     |
  +=========================================================================+

     +-----------+-----------------+-----------------+---------------------+
     | operator  |   left moment   |  right moment   | transition strength |
     +-----------+-----------------+-----------------+---------------------+
     | xdiplen   |     -0.51715945 |     -0.51715945 |       0.26745390    |
     | ydiplen   |      0.20293079 |      0.20293079 |       0.04118091    |
     | zdiplen   |     -0.02167266 |     -0.02167266 |       0.00046970    |
     | xdipvel   |     -0.09183535 |      0.09183535 |       0.00843373    |
     | ydipvel   |      0.05775118 |     -0.05775118 |       0.00333520    |
     | zdipvel   |     -0.00626900 |      0.00626900 |       0.00003930    |
     | xangmom   |      0.02243300 |     -0.02243300 |       0.00050324    |
     | yangmom   |      0.03317211 |     -0.03317211 |       0.00110039    |
     | zangmom   |      0.07260163 |     -0.07260163 |       0.00527100    |
     +-----------+-----------------+-----------------+---------------------+
 
       oscillator strength (length gauge)   :      0.04789285
       oscillator strength (velocity gauge) :      0.03387170
       oscillator strength (mixed gauge)    :      0.03956592
 
       rotator strength (length gauge)      :     -0.00322163 a.u.
       Rotator strength (length gauge)      :     -1.51881831 10^(-40)*erg*cm^3
       rotator strength (velocity gauge)    :     -0.00128986 a.u.
       Rotator strength (velocity gauge)    :     -0.60809460 10^(-40)*erg*cm^3
 


  +=========================================================================+
  |  Transition                                             model: ADC(2)   |
  |    number, symmetry, multiplicity:   10 a    1                          |
  |    frequency :   0.2394282872 a.u.     6.51518 e.V.     52548.4 rcm     |
  +=========================================================================+

     +-----------+-----------------+-----------------+---------------------+
     | operator  |   left moment   |  right moment   | transition strength |
     +-----------+-----------------+-----------------+---------------------+
     | xdiplen   |      0.15342346 |      0.15342346 |       0.02353876    |
     | ydiplen   |      0.02609336 |      0.02609336 |       0.00068086    |
     | zdiplen   |      0.02166365 |      0.02166365 |       0.00046931    |
     | xdipvel   |      0.03110914 |     -0.03110914 |       0.00096778    |
     | ydipvel   |      0.00339570 |     -0.00339570 |       0.00001153    |
     | zdipvel   |      0.00896505 |     -0.00896505 |       0.00008037    |
     | xangmom   |      0.15331255 |     -0.15331255 |       0.02350474    |
     | yangmom   |     -0.06864521 |      0.06864521 |       0.00471216    |
     | zangmom   |     -0.03615662 |      0.03615662 |       0.00130730    |
     +-----------+-----------------+-----------------+---------------------+
 
       oscillator strength (length gauge)   :      0.00394082
       oscillator strength (velocity gauge) :      0.00295059
       oscillator strength (mixed gauge)    :      0.00337046
 
       rotator strength (length gauge)      :      0.01047364 a.u.
       Rotator strength (length gauge)      :      4.93772855 10^(-40)*erg*cm^3
       rotator strength (velocity gauge)    :      0.00879632 a.u.
       Rotator strength (velocity gauge)    :      4.14697049 10^(-40)*erg*cm^3
 


  +=========================================================================+
  |  Transition                                             model: ADC(2)   |
  |    number, symmetry, multiplicity:   11 a    1                          |
  |    frequency :   0.2395749568 a.u.     6.51917 e.V.     52580.6 rcm     |
  +=========================================================================+

     +-----------+-----------------+-----------------+---------------------+
     | operator  |   left moment   |  right moment   | transition strength |
     +-----------+-----------------+-----------------+---------------------+
     | xdiplen   |     -0.15358260 |     -0.15358260 |       0.02358762    |
     | ydiplen   |     -0.02785261 |     -0.02785261 |       0.00077577    |
     | zdiplen   |      0.00874582 |      0.00874582 |       0.00007649    |
     | xdipvel   |     -0.03138794 |      0.03138794 |       0.00098520    |
     | ydipvel   |     -0.00404881 |      0.00404881 |       0.00001639    |
     | zdipvel   |      0.00274740 |     -0.00274740 |       0.00000755    |
     | xangmom   |     -0.12964896 |      0.12964896 |       0.01680885    |
     | yangmom   |      0.17805698 |     -0.17805698 |       0.03170429    |
     | zangmom   |      0.03495477 |     -0.03495477 |       0.00122184    |
     +-----------+-----------------+-----------------+---------------------+
 
       oscillator strength (length gauge)   :      0.00390345
       oscillator strength (velocity gauge) :      0.00280815
       oscillator strength (mixed gauge)    :      0.00330496
 
       rotator strength (length gauge)      :      0.00762909 a.u.
       Rotator strength (length gauge)      :      3.59668566 10^(-40)*erg*cm^3
       rotator strength (velocity gauge)    :      0.00718884 a.u.
       Rotator strength (velocity gauge)    :      3.38913055 10^(-40)*erg*cm^3
 


  +=========================================================================+
  |  Transition                                             model: ADC(2)   |
  |    number, symmetry, multiplicity:   12 a    1                          |
  |    frequency :   0.2457791234 a.u.     6.68799 e.V.     53942.3 rcm     |
  +=========================================================================+

     +-----------+-----------------+-----------------+---------------------+
     | operator  |   left moment   |  right moment   | transition strength |
     +-----------+-----------------+-----------------+---------------------+
     | xdiplen   |     -1.64948180 |     -1.64948180 |       2.72079020    |
     | ydiplen   |     -0.43413097 |     -0.43413097 |       0.18846970    |
     | zdiplen   |     -0.00244896 |     -0.00244896 |       0.00000600    |
     | xdipvel   |     -0.37979266 |      0.37979266 |       0.14424247    |
     | ydipvel   |     -0.09785127 |      0.09785127 |       0.00957487    |
     | zdipvel   |      0.00132438 |     -0.00132438 |       0.00000175    |
     | xangmom   |      0.01174000 |     -0.01174000 |       0.00013783    |
     | yangmom   |     -0.02923271 |      0.02923271 |       0.00085455    |
     | zangmom   |      0.52891746 |     -0.52891746 |       0.27975368    |
     +-----------+-----------------+-----------------+---------------------+
 
       oscillator strength (length gauge)   :      0.47669121
       oscillator strength (velocity gauge) :      0.41722852
       oscillator strength (mixed gauge)    :      0.44595874
 
       rotator strength (length gauge)      :     -0.00398470 a.u.
       Rotator strength (length gauge)      :     -1.87856003 10^(-40)*erg*cm^3
       rotator strength (velocity gauge)    :     -0.00182648 a.u.
       Rotator strength (velocity gauge)    :     -0.86108035 10^(-40)*erg*cm^3
 


  +=========================================================================+
  |  Transition                                             model: ADC(2)   |
  |    number, symmetry, multiplicity:   13 a    1                          |
  |    frequency :   0.2495897318 a.u.     6.79168 e.V.     54778.6 rcm     |
  +=========================================================================+

     +-----------+-----------------+-----------------+---------------------+
     | operator  |   left moment   |  right moment   | transition strength |
     +-----------+-----------------+-----------------+---------------------+
     | xdiplen   |     -0.10168275 |     -0.10168275 |       0.01033938    |
     | ydiplen   |     -0.04260213 |     -0.04260213 |       0.00181494    |
     | zdiplen   |      0.20633199 |      0.20633199 |       0.04257289    |
     | xdipvel   |     -0.02491743 |      0.02491743 |       0.00062088    |
     | ydipvel   |     -0.00946855 |      0.00946855 |       0.00008965    |
     | zdipvel   |      0.04940415 |     -0.04940415 |       0.00244077    |
     | xangmom   |      0.13115152 |     -0.13115152 |       0.01720072    |
     | yangmom   |     -0.39454042 |      0.39454042 |       0.15566214    |
     | zangmom   |      0.01667661 |     -0.01667661 |       0.00027811    |
     +-----------+-----------------+-----------------+---------------------+
 
       oscillator strength (length gauge)   :      0.00910623
       oscillator strength (velocity gauge) :      0.00841729
       oscillator strength (mixed gauge)    :      0.00875381
 
       rotator strength (length gauge)      :      0.00345667 a.u.
       Rotator strength (length gauge)      :      1.62962365 10^(-40)*erg*cm^3
       rotator strength (velocity gauge)    :      0.00258757 a.u.
       Rotator strength (velocity gauge)    :      1.21989346 10^(-40)*erg*cm^3
 


  +=========================================================================+
  |  Transition                                             model: ADC(2)   |
  |    number, symmetry, multiplicity:   14 a    1                          |
  |    frequency :   0.2547463242 a.u.     6.93200 e.V.     55910.4 rcm     |
  +=========================================================================+

     +-----------+-----------------+-----------------+---------------------+
     | operator  |   left moment   |  right moment   | transition strength |
     +-----------+-----------------+-----------------+---------------------+
     | xdiplen   |      0.00819388 |      0.00819388 |       0.00006714    |
     | ydiplen   |      0.00289211 |      0.00289211 |       0.00000836    |
     | zdiplen   |     -0.01813591 |     -0.01813591 |       0.00032891    |
     | xdipvel   |      0.00197462 |     -0.00197462 |       0.00000390    |
     | ydipvel   |      0.00061626 |     -0.00061626 |       0.00000038    |
     | zdipvel   |     -0.00474689 |      0.00474689 |       0.00002253    |
     | xangmom   |     -0.06578052 |      0.06578052 |       0.00432708    |
     | yangmom   |     -0.14468959 |      0.14468959 |       0.02093508    |
     | zangmom   |      0.00325253 |     -0.00325253 |       0.00001058    |
     +-----------+-----------------+-----------------+---------------------+
 
       oscillator strength (length gauge)   :      0.00006868
       oscillator strength (velocity gauge) :      0.00007017
       oscillator strength (mixed gauge)    :      0.00006937
 
       rotator strength (length gauge)      :     -0.00050822 a.u.
       Rotator strength (length gauge)      :     -0.23959769 10^(-40)*erg*cm^3
       rotator strength (velocity gauge)    :     -0.00046026 a.u.
       Rotator strength (velocity gauge)    :     -0.21698496 10^(-40)*erg*cm^3
 


  +=========================================================================+
  |  Transition                                             model: ADC(2)   |
  |    number, symmetry, multiplicity:   15 a    1                          |
  |    frequency :   0.2602492017 a.u.     7.08174 e.V.     57118.1 rcm     |
  +=========================================================================+

     +-----------+-----------------+-----------------+---------------------+
     | operator  |   left moment   |  right moment   | transition strength |
     +-----------+-----------------+-----------------+---------------------+
     | xdiplen   |     -0.02514773 |     -0.02514773 |       0.00063241    |
     | ydiplen   |      0.00754565 |      0.00754565 |       0.00005694    |
     | zdiplen   |      0.16357648 |      0.16357648 |       0.02675726    |
     | xdipvel   |     -0.00698059 |      0.00698059 |       0.00004873    |
     | ydipvel   |      0.00200906 |     -0.00200906 |       0.00000404    |
     | zdipvel   |      0.04099720 |     -0.04099720 |       0.00168077    |
     | xangmom   |      0.02440670 |     -0.02440670 |       0.00059569    |
     | yangmom   |     -0.12936331 |      0.12936331 |       0.01673487    |
     | zangmom   |      0.00392108 |     -0.00392108 |       0.00001537    |
     +-----------+-----------------+-----------------+---------------------+
 
       oscillator strength (length gauge)   :      0.00476197
       oscillator strength (velocity gauge) :      0.00444071
       oscillator strength (mixed gauge)    :      0.00459792
 
       rotator strength (length gauge)      :     -0.00047425 a.u.
       Rotator strength (length gauge)      :     -0.22358384 10^(-40)*erg*cm^3
       rotator strength (velocity gauge)    :     -0.00051781 a.u.
       Rotator strength (velocity gauge)    :     -0.24411789 10^(-40)*erg*cm^3
 
 Exporting transition densities


    ------------------------------------------------------------------------
         total  cpu-time :  8 hours  4 minutes and 53 seconds
         total wall-time : 10 hours  0 minutes and 33 seconds
    ------------------------------------------------------------------------


   ****  ricc2 : all done  ****


    2023-02-16 00:45:33.398 

