 hostname is         dlt14.abaxnet
 this is node-proc. number 0 running on node dlt14.abaxnet
 the total number of node-proc. spawned is   1

 ricc2 (dlt14.abaxnet) : TURBOMOLE V6.6( 19125 ) 27 May 2014 at 14:24:19
 Copyright (C) 2014 TURBOMOLE GmbH, Karlsruhe


    2023-01-23 21:09:31.889 



                              R I C C 2 - PROGRAM

                          the quantum chemistry groups
                             at the universities in
                           Karlsruhe, Bochum & Mainz
                                   Germany



   *-----------------------------------------------------------------------*
   |                     program will use  1 thread(s)                     |
   *-----------------------------------------------------------------------*


              +--------------------------------------------------+
              | Atomic coordinate, charge and isotop information |
              +--------------------------------------------------+

                    atomic coordinates            atom    charge  isotop
          1.18206955    1.29592339   -0.03300281    c      6.000     0
          3.17683620   -0.41555061   -0.02965522    c      6.000     0
          2.77633938   -2.98732301   -0.02467022    c      6.000     0
          0.32382161   -3.88033501   -0.02922654    c      6.000     0
         -1.72206267   -2.23204456   -0.03923294    c      6.000     0
         -1.24950450    0.39266561   -0.03613090    c      6.000     0
          1.60041432    3.28846717   -0.02833041    h      1.000     0
          4.36959428   -4.25902188   -0.01895442    h      1.000     0
         -0.02510260   -5.89569284   -0.03536786    h      1.000     0
          5.74732869    0.55825730   -0.02532488    n      7.000     0
          7.47563211   -0.95473154   -0.01605983    o      8.000     0
          6.03405077    2.84082182   -0.03067231    o      8.000     0
         -4.16671899   -3.05521138   -0.11620681    n      7.000     0
         -4.53754908   -4.86084296    0.33041182    h      1.000     0
         -5.53259035   -1.78413942    0.23555864    h      1.000     0
         -3.36063477    1.85501009   -0.02400919    o      8.000     0
         -3.05581115    4.50807964   -0.02020334    c      6.000     0
         -4.94751470    5.30441520   -0.01361237    h      1.000     0
         -2.03870038    5.13862341    1.66169871    h      1.000     0
         -2.04989772    5.14262961   -1.70700911    h      1.000     0
 
       center of nuclear mass  :    1.12068966   -0.07664294   -0.03112790
       center of nuclear charge:    0.99642542   -0.06121528   -0.02732942

              +--------------------------------------------------+
              |               basis set information              |
              +--------------------------------------------------+

              we will work with the 1s 3p 5d 7f 9g ... basis set
              ...i.e. with spherical basis functions...

   type   atoms  prim   cont   basis
   ---------------------------------------------------------------------------
    c        7     52     37   def2-TZVPD   [6s3p3d1f|12s6p3d1f]
    h        8     11      9   def2-TZVPD   [3s2p|5s2p]
    n        2     52     37   def2-TZVPD   [6s3p3d1f|12s6p3d1f]
    o        3     55     40   def2-TZVPD   [6s4p3d1f|12s7p3d1f]
   ---------------------------------------------------------------------------
   total:   20    721    525
   ---------------------------------------------------------------------------

   total number of primitive shells          :   74
   total number of contracted shells         :  199
   total number of cartesian basis functions :  597
   total number of SCF-basis functions       :  525



   =========================================================================


     restricted closed shell calculation for the wavefunction models:
               ADC(2)     - Algebraic Diagrammatic Construction to 2. Order (strict)


     global parameters for ricc2 program:

        hard restart (reuse of interm.) :  disabled
        soft restart (reuse of vectors) :  disabled
        threshold for vector function   :    0.100000E-06
        convergence threshold energy    :    0.100000E-07
        linear dependence threshold     :    0.100000E-13
        global print level              :      1
        maximum number of iterations    :   500
        maximum number DIIS vectors     :    10
        max. dim. of reduced space      :   100
        core memory limit (MB)          :   500
        disk space limit (MB)           :   none


   =========================================================================
     "cartesian on" in $drvopt is ignored by $ricc2

    der. integral neglect threshold  :  0.10E-08
    integral neglect threshold       :  0.56E-12
    integral storage threshold THIZE :  0.10E-04
    integral storage threshold THIME :         5


                  +------------------------------------------+
                  |     Auxiliary basis set information      |
                  +------------------------------------------+

              we will work with the 1s 3p 5d 7f 9g ... basis set
              ...i.e. with spherical basis functions...

   type   atoms  prim   cont   basis
   ---------------------------------------------------------------------------
    c        7     97     92   def2-TZVPD   [9s7p5d4f1g|9s7p6d4f1g]
    h        8     32     24   def2-TZVPD   [5s3p2d|5s4p3d]
    n        2     97     92   def2-TZVPD   [9s7p5d4f1g|9s7p6d4f1g]
    o        3     97     92   def2-TZVPD   [9s7p5d4f1g|9s7p6d4f1g]
   ---------------------------------------------------------------------------
   total:   20   1420   1296
   ---------------------------------------------------------------------------

   total number of primitive shells          :   93
   total number of contracted shells         :  392
   total number of cartesian basis functions : 1588
   total number of SCF-basis functions       : 1296


 symmetry group of the molecule :   c1 

 the group has the following generators :
   c1(z)

    1 symmetry operations found

 there are 1 real representations :   a   

 maximum number of shells which are related by symmetry :  1


 The symmetry information takes   1 MB

*---------------------------------------------------------------------*
|               simplified C1 algorithm will be applied               |
*---------------------------------------------------------------------*
  MOs are in ASCII format !


 reading orbital data $scfmo  from file mos . 

 orbital characterization : scfconv=7
 

         --------------------------------------------------------------
                   checking mo's by calculating trace(D*S)

              number of electrons : 
                 from trace(D*S)         :   87.999999999997
                 from occupation numbers :   88.000000000000

              molecular charge           :    0.000000000000
         --------------------------------------------------------------

 time elapsed for calculating density matrices :   0.028 sec
 all orbitals will be active in the correlation treatment


   Molecular Orbital Statistic:
   ============================

   -----------------------------
   orbitals in total:
   -----------------------------
    frozen occupied :      0
    active occupied :     44
    active virtual  :    481
    frozen virtual  :      0
    all together    :    525
   -----------------------------


     time in riccmos       cpu:  0.27 sec    wall:  0.45 sec    ratio:  0.6

     total memory allocated for calculation of (Q|P)**(-1/2) : 20 MiB


     calculation of (P|Q) ...
     time in lp2sym        cpu:  0.04 sec    wall:  0.04 sec    ratio:  1.0


     calculation of the Cholesky decomposition of (P|Q)**(-1) ...
     time in invmetri      cpu:  0.17 sec    wall:  0.29 sec    ratio:  0.6

   threshold for RMS(d[D]) in SCF was     :  0.10E-07
   integral neglect threshold             :  0.56E-12
   derivative integral neglect threshold  :  0.10E-08


 setting up bound for integral derivative estimation

 increment for numerical differentiation : 0.00050000

   =========================================================================

     Energy of reference wave function is  -603.3290647642000
     Maximum orbital residual is           0.1042844890958E-04


     Number of symmetry-nonredundant auxiliary basis functions:     1296

     Block lengths for integral files:
        frozen occupied (BOI):        0 MiB
        active occupied (BJI):        1 MiB
        active virtual  (BAI):        5 MiB
        frozen virtual  (BGI):        0 MiB
               general  (BTI):        6 MiB

   =========================================================================




   **************************************************************************
   *                                                                        *
   *          OPTIMIZATION OF THE GROUND STATE CLUSTER AMPLITUDES           *
   *                                                                        *
   **************************************************************************


   Iter.   MP2 energy       Norm(Omega)    Norm(t1)  Norm(t2)     cpu    wall
   ...........................................................................
    1   -605.7812707745    0.1785629020     0.00000   0.49013    1.40    1.63
   ...........................................................................


     time in total         cpu:  1 min 24 s  wall:  1 min 38 s  ratio:  0.9


     **********************************************************************
     *                                                                    *
     *   RHF  energy                             :   -603.3290647642      *
     *   MP2 correlation energy                  :     -2.4522060103      *
     *                                                                    *
     *   Final MP2 energy                        :   -605.7812707745      *
     *                                                                    *
     *   Norm of MP1 T2 amplitudes               :      0.4901332604      *
     *                                                                    *
     *   D1 diagnostic                           :      0.0569            *
     *                                                                    *
     **********************************************************************



 **************************************************************
 *                                                            *
 *    OPTIMIZATION OF THE EXCITED STATE CLUSTER AMPLITUDES    *
 *                                                            *
 **************************************************************


  preoptimize excitation energies/vectors using CCS:

  ==================================================


 ======== LINEAR CC RESPONSE SOLVER ========

    threshold for convergence: 0.10E-02
    maximum number of simultaneous jacoby matrix transformations: 15
                                                
     summary of start vectors generation:
     -------------------------------------------
     type of solution vectors      : RE0
     symmetry                      : a  
     number of vectors requested   :    15
     number of vectors generated   :    15
       -- guessed as rhs/(e_a-e_i) :    15
     -------------------------------------------
                                                

    Iter  #Vectors  time (min)    max. residual 
    --------------------------------------------
      1      15         3.84     0.15E+00  (  6)
      2      15         3.84     0.55E-01  (  1)
      3      15         3.85     0.63E-01  ( 14)
      4      15         3.97     0.62E-01  ( 10)
      5      15         3.92     0.16E+00  ( 10)
  dimension of red. space became too large.
  try internal restart...
      6      15         4.05     0.11E+00  (  3)
                                                
     summary of start vectors generation:
     -------------------------------------------
     type of solution vectors      : RE0
     symmetry                      : a  
     number of vectors requested   :    15
     number of vectors generated   :    15
       -- restarted from file      :    15
     -------------------------------------------
                                                

    Iter  #Vectors  time (min)    max. residual 
    --------------------------------------------
      7      15         3.89     0.11E+00  (  3)
      8      15         3.88     0.47E-01  (  2)
      9      11         3.46     0.98E-02  (  2)
     10       7         1.88     0.29E-02  ( 10)
     11       5         1.30     0.12E-02  ( 10)
     12       1         0.39     0.70E-03  (  2)
    --------------------------------------------
    converged in 12 iterations

         Total time         38.29 minutes


 ===========================================




 Note that this is the intermediate result of a preoptimization!
 The convergence threshold was  0.1E-02 only!


 +==================================================================+
 | sym | multi | state |          CCS excitation energies           |
 |     |       |       +--------------------------------------------+
 |     |       |       |   Hartree    |     eV       |     cm-1     |
 +==================================================================+
 | a   |   1   |   1   |    0.1896317 |      5.16014 |    41619.351 |
 | a   |   1   |   2   |    0.1931563 |      5.25605 |    42392.906 |
 | a   |   1   |   3   |    0.2056286 |      5.59544 |    45130.251 |
 | a   |   1   |   4   |    0.2063344 |      5.61464 |    45285.169 |
 | a   |   1   |   5   |    0.2193042 |      5.96757 |    48131.709 |
 | a   |   1   |   6   |    0.2453835 |      6.67722 |    53855.453 |
 | a   |   1   |   7   |    0.2500689 |      6.80472 |    54883.778 |
 | a   |   1   |   8   |    0.2519422 |      6.85570 |    55294.915 |
 | a   |   1   |   9   |    0.2658787 |      7.23493 |    58353.622 |
 | a   |   1   |  10   |    0.2710445 |      7.37550 |    59487.401 |
 | a   |   1   |  11   |    0.2716684 |      7.39247 |    59624.322 |
 | a   |   1   |  12   |    0.2725202 |      7.41565 |    59811.275 |
 | a   |   1   |  13   |    0.2782156 |      7.57063 |    61061.267 |
 | a   |   1   |  14   |    0.2838682 |      7.72445 |    62301.874 |
 | a   |   1   |  15   |    0.2869189 |      7.80746 |    62971.426 |
 +==================================================================+




  preoptimize ADC(2) excitation energies/vectors using a quasi linear algorithm:
  ==============================================================================


 ======== LINEAR CC RESPONSE SOLVER ========

    threshold for convergence: 0.10E-02
    maximum number of simultaneous jacoby matrix transformations: 15
                                                
     summary of start vectors generation:
     -------------------------------------------
     type of solution vectors      : RE0
     symmetry                      : a  
     number of vectors requested   :    15
     number of vectors generated   :    15
       -- restarted from file      :    15
     -------------------------------------------
                                                

    Iter  #Vectors  time (min)    max. residual 
    --------------------------------------------
 threshold for this macro iteration:  4.532468255782607E-002
      1      15        33.25     0.93E-01  (  1)
 ...adapted threshold to:  5.656423217227011E-002
      2       8        17.05     0.39E-01  ( 13)
                                                
     summary of start vectors generation:
     -------------------------------------------
     type of solution vectors      : RE0
     symmetry                      : a  
     number of vectors requested   :    15
     number of vectors generated   :    15
       -- restarted from file      :    15
     -------------------------------------------
                                                

    Iter  #Vectors  time (min)    max. residual 
    --------------------------------------------
 threshold for this macro iteration:  6.556372244192560E-003
      3      15        32.88     0.39E-01  ( 10)
      4      15        32.32     0.25E-01  ( 10)
 ...adapted threshold to:  6.897667521361506E-003
      5      15        31.86     0.22E-01  ( 13)
 ...adapted threshold to:  9.153141754929928E-003
      6       5        10.84     0.46E-01  ( 15)
 ...adapted threshold to:  1.194954065974591E-002
      7       4         8.98     0.22E-01  ( 15)
 ...adapted threshold to:  1.263767891337864E-002
      8       2         4.61     0.10E-01  ( 15)
                                                
     summary of start vectors generation:
     -------------------------------------------
     type of solution vectors      : RE0
     symmetry                      : a  
     number of vectors requested   :    15
     number of vectors generated   :    15
       -- restarted from file      :    15
     -------------------------------------------
                                                

    Iter  #Vectors  time (min)    max. residual 
    --------------------------------------------
 threshold for this macro iteration:  1.000000000000000E-003
      9      15        31.94     0.96E-02  ( 15)
     10      11        24.16     0.25E-02  ( 13)
     11       5        10.79     0.15E-02  ( 15)
     12       3         6.88     0.11E-02  ( 15)
     13       1         2.71     0.94E-03  ( 15)
    --------------------------------------------
    converged in 13 iterations

         Total time        248.41 minutes


 ===========================================




 Note that this is the intermediate result of a preoptimization!
 The convergence threshold was  0.1E-02 only!


 +==================================================================+
 | sym | multi | state |          ADC(2) excitation energies        |
 |     |       |       +--------------------------------------------+
 |     |       |       |   Hartree    |     eV       |     cm-1     |
 +==================================================================+
 | a   |   1   |   1   |    0.1378802 |      3.75191 |    30261.196 |
 | a   |   1   |   2   |    0.1485812 |      4.04310 |    32609.803 |
 | a   |   1   |   3   |    0.1633459 |      4.44487 |    35850.276 |
 | a   |   1   |   4   |    0.1697656 |      4.61956 |    37259.236 |
 | a   |   1   |   5   |    0.1950637 |      5.30795 |    42811.539 |
 | a   |   1   |   6   |    0.1971460 |      5.36461 |    43268.539 |
 | a   |   1   |   7   |    0.2188295 |      5.95465 |    48027.528 |
 | a   |   1   |   8   |    0.2198407 |      5.98217 |    48249.450 |
 | a   |   1   |   9   |    0.2243786 |      6.10565 |    49245.405 |
 | a   |   1   |  10   |    0.2278234 |      6.19939 |    50001.466 |
 | a   |   1   |  11   |    0.2386646 |      6.49440 |    52380.833 |
 | a   |   1   |  12   |    0.2438456 |      6.63538 |    53517.931 |
 | a   |   1   |  13   |    0.2455728 |      6.68238 |    53897.009 |
 | a   |   1   |  14   |    0.2548117 |      6.93378 |    55924.713 |
 | a   |   1   |  15   |    0.2556859 |      6.95757 |    56116.576 |
 +==================================================================+





  solve for ADC(2) excitation energies/vectors using a DIIS algorithm:
  =================================================================
                                                
     summary of start vectors generation:
     -------------------------------------------
     type of solution vectors      : RE0
     symmetry                      : a  
     number of vectors requested   :    15
     number of vectors generated   :    15
       -- restarted from file      :    15
     -------------------------------------------
                                                


 ========= DIIS CC RESPONSE SOLVER =========

    threshold for convergence:0.10E-05
    max. nb. of DIIS vectors :      10
    maximum number of simultaneous jacoby matrix transformations: 15

    Iter  #Vectors  time (min)   residual
    --------------------------------------
      1      15        32.63     0.37E-03  (  5)    0.21E-02
      2      15        31.68     0.27E-03  ( 11)    0.24E-02
      3      15        31.80     0.17E-03  ( 15)    0.22E-02
      4      15        31.61     0.14E-03  ( 15)    0.23E-02
      5      15        31.65     0.11E-03  ( 15)    0.27E-02
      6      15        32.55     0.75E-04  ( 15)    0.20E-02
      7      13        28.70     0.44E-04  ( 15)    0.24E-02
      8      10        21.56     0.32E-04  ( 15)    0.22E-02
      9       8        17.25     0.28E-04  ( 14)    0.23E-02
     10       7        15.18     0.26E-04  ( 14)    0.23E-02
     11       6        13.10     0.25E-04  ( 14)    0.22E-02
     12       5        10.79     0.25E-04  ( 14)    0.23E-02
     13       5        10.83     0.24E-04  ( 14)    0.22E-02
     14       5        10.77     0.23E-04  ( 14)    0.23E-02
     15       4         8.75     0.23E-04  ( 14)    0.23E-02
     16       3         6.60     0.21E-04  ( 14)    0.23E-02
     17       2         4.56     0.20E-04  ( 14)    0.23E-02
     18       2         4.56     0.18E-04  ( 14)    0.23E-02
     19       2         4.57     0.17E-04  ( 15)    0.23E-02
     20       2         4.69     0.17E-04  ( 15)    0.23E-02
     21       2         4.66     0.17E-04  ( 15)    0.23E-02
     22       2         4.62     0.17E-04  ( 15)    0.23E-02
     23       2         4.55     0.17E-04  ( 15)    0.23E-02
     24       2         4.55     0.17E-04  ( 15)    0.23E-02
     25       2         4.59     0.17E-04  ( 15)    0.23E-02
     26       2         4.53     0.17E-04  ( 15)    0.23E-02
     27       2         4.56     0.17E-04  ( 15)    0.23E-02
     28       2         4.57     0.15E-04  ( 15)    0.23E-02
     29       2         4.57     0.12E-04  ( 15)    0.23E-02
     30       1         2.51     0.10E-04  ( 15)    0.23E-02
     31       1         2.50     0.75E-05  ( 15)    0.23E-02
     32       1         2.52     0.59E-05  ( 15)    0.23E-02
     33       1         2.51     0.48E-05  ( 15)    0.23E-02
     34       1         2.53     0.34E-05  ( 15)    0.23E-02
     35       1         2.50     0.25E-05  ( 15)    0.23E-02
     36       1         2.51     0.18E-05  ( 15)    0.23E-02
     37       1         2.50     0.12E-05  ( 15)    0.23E-02
     38       1         2.53     0.76E-06  ( 15)    0.23E-02
    --------------------------------------
    converged in  38 iterations

   Total time        417.62 minutes


 ===========================================





 +================================================================================+
 | sym | multi | state |          ADC(2) excitation energies    |  %t1   |  %t2   |
 |     |       |       +----------------------------------------+--------+--------+
 |     |       |       |   Hartree    |    eV      |    cm-1    |    %   |    %   |
 +================================================================================+
 | a   |   1   |   1   |    0.1379412 |    3.75357 |  30274.591 |  89.71 |  10.29 |
 | a   |   1   |   2   |    0.1486759 |    4.04568 |  32630.591 |  87.79 |  12.21 |
 | a   |   1   |   3   |    0.1633836 |    4.44590 |  35858.565 |  90.11 |   9.89 |
 | a   |   1   |   4   |    0.1698185 |    4.62100 |  37270.852 |  89.12 |  10.88 |
 | a   |   1   |   5   |    0.1950533 |    5.30767 |  42809.260 |  91.15 |   8.85 |
 | a   |   1   |   6   |    0.1972082 |    5.36631 |  43282.199 |  89.01 |  10.99 |
 | a   |   1   |   7   |    0.2188611 |    5.95551 |  48034.464 |  89.40 |  10.60 |
 | a   |   1   |   8   |    0.2198398 |    5.98215 |  48249.264 |  90.72 |   9.28 |
 | a   |   1   |   9   |    0.2243459 |    6.10476 |  49238.232 |  90.95 |   9.05 |
 | a   |   1   |  10   |    0.2278022 |    6.19881 |  49996.807 |  89.33 |  10.67 |
 | a   |   1   |  11   |    0.2386876 |    6.49502 |  52385.875 |  90.93 |   9.07 |
 | a   |   1   |  12   |    0.2437989 |    6.63410 |  53507.666 |  90.41 |   9.59 |
 | a   |   1   |  13   |    0.2455451 |    6.68162 |  53890.916 |  90.33 |   9.67 |
 | a   |   1   |  14   |    0.2547856 |    6.93307 |  55918.976 |  91.01 |   8.99 |
 | a   |   1   |  15   |    0.2557379 |    6.95898 |  56127.989 |  91.22 |   8.78 |
 +================================================================================+


       Energy:     0.1379412 H      3.75357 eV    30274.591 cm-1

     +=======================================================================+
     | type: RE0                    symmetry: a               state:    1    |
     +-----------------------+-----------------------+-----------------------+
     | occ. orb.  index spin | vir. orb.  index spin |  coeff/|amp|     %    |
     +=======================+=======================+=======================+
     |   40 a       40       |   46 a       46       |   0.77668      60.3   |
     |   40 a       40       |   45 a       45       |  -0.39590      15.7   |
     |   40 a       40       |   61 a       61       |   0.24858       6.2   |
     |   40 a       40       |   60 a       60       |  -0.18963       3.6   |
     |   40 a       40       |   52 a       52       |  -0.16951       2.9   |
     |   40 a       40       |   66 a       66       |  -0.12971       1.7   |
     |   39 a       39       |   46 a       46       |  -0.12854       1.7   |
     |   41 a       41       |   46 a       46       |   0.09011       0.8   |
     |   40 a       40       |   65 a       65       |   0.08860       0.8   |
     |   37 a       37       |   46 a       46       |   0.08031       0.6   |
     |   40 a       40       |   68 a       68       |   0.07068       0.5   |
     |   39 a       39       |   45 a       45       |   0.06563       0.4   |
     +=======================+=======================+=======================+
     norm of printed elements:  0.95153


       Energy:     0.1486759 H      4.04568 eV    32630.591 cm-1

     +=======================================================================+
     | type: RE0                    symmetry: a               state:    2    |
     +-----------------------+-----------------------+-----------------------+
     | occ. orb.  index spin | vir. orb.  index spin |  coeff/|amp|     %    |
     +=======================+=======================+=======================+
     |   44 a       44       |   46 a       46       |   0.84433      71.3   |
     |   44 a       44       |   45 a       45       |  -0.44247      19.6   |
     |   43 a       43       |   53 a       53       |  -0.10264       1.1   |
     |   44 a       44       |   53 a       53       |  -0.09830       1.0   |
     |   44 a       44       |   56 a       56       |   0.07892       0.6   |
     |   44 a       44       |   61 a       61       |   0.07265       0.5   |
     |   43 a       43       |   46 a       46       |  -0.07024       0.5   |
     |   44 a       44       |   52 a       52       |  -0.06704       0.4   |
     |   44 a       44       |   60 a       60       |  -0.05883       0.3   |
     +=======================+=======================+=======================+
     norm of printed elements:  0.95327


       Energy:     0.1633836 H      4.44590 eV    35858.565 cm-1

     +=======================================================================+
     | type: RE0                    symmetry: a               state:    3    |
     +-----------------------+-----------------------+-----------------------+
     | occ. orb.  index spin | vir. orb.  index spin |  coeff/|amp|     %    |
     +=======================+=======================+=======================+
     |   39 a       39       |   46 a       46       |   0.77429      60.0   |
     |   39 a       39       |   45 a       45       |  -0.39511      15.6   |
     |   39 a       39       |   61 a       61       |   0.23586       5.6   |
     |   39 a       39       |   60 a       60       |  -0.18007       3.2   |
     |   39 a       39       |   52 a       52       |  -0.16432       2.7   |
     |   37 a       37       |   46 a       46       |   0.13902       1.9   |
     |   39 a       39       |   66 a       66       |  -0.12107       1.5   |
     |   40 a       40       |   46 a       46       |   0.10718       1.1   |
     |   39 a       39       |   65 a       65       |   0.08278       0.7   |
     |   37 a       37       |   45 a       45       |  -0.07071       0.5   |
     |   34 a       34       |   46 a       46       |   0.06724       0.5   |
     |   39 a       39       |   68 a       68       |   0.06509       0.4   |
     |   24 a       24       |   46 a       46       |   0.05569       0.3   |
     |   40 a       40       |   45 a       45       |  -0.05456       0.3   |
     |   41 a       41       |   46 a       46       |   0.05022       0.3   |
     |   37 a       37       |   61 a       61       |   0.04971       0.2   |
     |   29 a       29       |   46 a       46       |   0.04795       0.2   |
     |   39 a       39       |   47 a       47       |   0.04702       0.2   |
     +=======================+=======================+=======================+
     norm of printed elements:  0.95237


       Energy:     0.1698185 H      4.62100 eV    37270.852 cm-1

     +=======================================================================+
     | type: RE0                    symmetry: a               state:    4    |
     +-----------------------+-----------------------+-----------------------+
     | occ. orb.  index spin | vir. orb.  index spin |  coeff/|amp|     %    |
     +=======================+=======================+=======================+
     |   44 a       44       |   53 a       53       |   0.60652      36.8   |
     |   43 a       43       |   46 a       46       |   0.58792      34.6   |
     |   43 a       43       |   45 a       45       |  -0.30526       9.3   |
     |   44 a       44       |   52 a       52       |  -0.28981       8.4   |
     |   43 a       43       |   56 a       56       |   0.13347       1.8   |
     |   44 a       44       |   46 a       46       |   0.09895       1.0   |
     |   44 a       44       |   63 a       63       |   0.09364       0.9   |
     |   44 a       44       |   59 a       59       |  -0.08233       0.7   |
     |   43 a       43       |   52 a       52       |  -0.07091       0.5   |
     |   44 a       44       |   66 a       66       |  -0.06472       0.4   |
     |   44 a       44       |   50 a       50       |   0.05719       0.3   |
     |   44 a       44       |   56 a       56       |   0.05023       0.3   |
     |   44 a       44       |   65 a       65       |   0.04992       0.2   |
     +=======================+=======================+=======================+
     norm of printed elements:  0.95134


       Energy:     0.1950533 H      5.30767 eV    42809.260 cm-1

     +=======================================================================+
     | type: RE0                    symmetry: a               state:    5    |
     +-----------------------+-----------------------+-----------------------+
     | occ. orb.  index spin | vir. orb.  index spin |  coeff/|amp|     %    |
     +=======================+=======================+=======================+
     |   44 a       44       |   45 a       45       |   0.62356      38.9   |
     |   44 a       44       |   47 a       47       |   0.45203      20.4   |
     |   44 a       44       |   46 a       46       |   0.29203       8.5   |
     |   43 a       43       |   46 a       46       |  -0.26493       7.0   |
     |   44 a       44       |   53 a       53       |   0.21250       4.5   |
     |   44 a       44       |   50 a       50       |   0.17563       3.1   |
     |   43 a       43       |   45 a       45       |   0.13155       1.7   |
     |   44 a       44       |   70 a       70       |  -0.12701       1.6   |
     |   44 a       44       |   72 a       72       |  -0.12168       1.5   |
     |   41 a       41       |   45 a       45       |   0.11772       1.4   |
     |   42 a       42       |   46 a       46       |  -0.10005       1.0   |
     |   41 a       41       |   47 a       47       |   0.09896       1.0   |
     |   44 a       44       |   49 a       49       |   0.09540       0.9   |
     |   44 a       44       |   52 a       52       |  -0.08235       0.7   |
     |   44 a       44       |   48 a       48       |   0.07943       0.6   |
     |   44 a       44       |   77 a       77       |  -0.06978       0.5   |
     |   44 a       44       |   51 a       51       |  -0.06848       0.5   |
     |   38 a       38       |   46 a       46       |  -0.06129       0.4   |
     |   41 a       41       |   46 a       46       |   0.05461       0.3   |
     |   35 a       35       |   45 a       45       |   0.05318       0.3   |
     +=======================+=======================+=======================+
     norm of printed elements:  0.94785


       Energy:     0.1972082 H      5.36631 eV    43282.199 cm-1

     +=======================================================================+
     | type: RE0                    symmetry: a               state:    6    |
     +-----------------------+-----------------------+-----------------------+
     | occ. orb.  index spin | vir. orb.  index spin |  coeff/|amp|     %    |
     +=======================+=======================+=======================+
     |   44 a       44       |   53 a       53       |  -0.51105      26.1   |
     |   43 a       43       |   46 a       46       |   0.50595      25.6   |
     |   44 a       44       |   45 a       45       |   0.28925       8.4   |
     |   43 a       43       |   45 a       45       |  -0.27551       7.6   |
     |   44 a       44       |   52 a       52       |   0.24527       6.0   |
     |   42 a       42       |   46 a       46       |   0.23823       5.7   |
     |   44 a       44       |   47 a       47       |   0.17536       3.1   |
     |   44 a       44       |   46 a       46       |   0.16540       2.7   |
     |   42 a       42       |   45 a       45       |  -0.12143       1.5   |
     |   44 a       44       |   49 a       49       |   0.09610       0.9   |
     |   44 a       44       |   51 a       51       |  -0.09314       0.9   |
     |   38 a       38       |   46 a       46       |   0.08791       0.8   |
     |   41 a       41       |   53 a       53       |  -0.08587       0.7   |
     |   43 a       43       |   61 a       61       |   0.08305       0.7   |
     |   44 a       44       |   72 a       72       |  -0.07591       0.6   |
     |   44 a       44       |   59 a       59       |   0.06877       0.5   |
     |   38 a       38       |   45 a       45       |  -0.06702       0.4   |
     |   43 a       43       |   60 a       60       |  -0.06190       0.4   |
     |   41 a       41       |   45 a       45       |   0.05834       0.3   |
     |   44 a       44       |   63 a       63       |  -0.05723       0.3   |
     +=======================+=======================+=======================+
     norm of printed elements:  0.93189


       Energy:     0.2188611 H      5.95551 eV    48034.464 cm-1

     +=======================================================================+
     | type: RE0                    symmetry: a               state:    7    |
     +-----------------------+-----------------------+-----------------------+
     | occ. orb.  index spin | vir. orb.  index spin |  coeff/|amp|     %    |
     +=======================+=======================+=======================+
     |   42 a       42       |   46 a       46       |   0.69544      48.4   |
     |   42 a       42       |   45 a       45       |  -0.35871      12.9   |
     |   44 a       44       |   47 a       47       |   0.29451       8.7   |
     |   44 a       44       |   49 a       49       |  -0.19994       4.0   |
     |   43 a       43       |   45 a       45       |   0.17640       3.1   |
     |   44 a       44       |   51 a       51       |   0.14265       2.0   |
     |   42 a       42       |   61 a       61       |   0.14008       2.0   |
     |   44 a       44       |   45 a       45       |  -0.13446       1.8   |
     |   44 a       44       |   53 a       53       |   0.11666       1.4   |
     |   42 a       42       |   52 a       52       |  -0.11486       1.3   |
     |   43 a       43       |   46 a       46       |  -0.10890       1.2   |
     |   42 a       42       |   60 a       60       |  -0.10783       1.2   |
     |   44 a       44       |   46 a       46       |  -0.08776       0.8   |
     |   38 a       38       |   45 a       45       |   0.08164       0.7   |
     |   41 a       41       |   53 a       53       |   0.07335       0.5   |
     |   44 a       44       |   52 a       52       |  -0.06762       0.5   |
     |   44 a       44       |   61 a       61       |   0.06405       0.4   |
     |   44 a       44       |   60 a       60       |  -0.06301       0.4   |
     |   42 a       42       |   66 a       66       |  -0.06187       0.4   |
     |   41 a       41       |   47 a       47       |   0.06034       0.4   |
     +=======================+=======================+=======================+
     norm of printed elements:  0.91834


       Energy:     0.2198398 H      5.98215 eV    48249.264 cm-1

     +=======================================================================+
     | type: RE0                    symmetry: a               state:    8    |
     +-----------------------+-----------------------+-----------------------+
     | occ. orb.  index spin | vir. orb.  index spin |  coeff/|amp|     %    |
     +=======================+=======================+=======================+
     |   44 a       44       |   47 a       47       |   0.58693      34.4   |
     |   44 a       44       |   49 a       49       |  -0.35575      12.7   |
     |   42 a       42       |   46 a       46       |  -0.34720      12.1   |
     |   44 a       44       |   45 a       45       |  -0.25195       6.3   |
     |   44 a       44       |   51 a       51       |   0.24034       5.8   |
     |   43 a       43       |   46 a       46       |   0.19359       3.7   |
     |   42 a       42       |   45 a       45       |   0.17451       3.0   |
     |   44 a       44       |   46 a       46       |  -0.16330       2.7   |
     |   43 a       43       |   45 a       45       |   0.13585       1.8   |
     |   44 a       44       |   53 a       53       |  -0.12988       1.7   |
     |   41 a       41       |   47 a       47       |   0.11478       1.3   |
     |   44 a       44       |   48 a       48       |   0.10700       1.1   |
     |   44 a       44       |   74 a       74       |   0.10613       1.1   |
     |   38 a       38       |   46 a       46       |   0.09007       0.8   |
     |   38 a       38       |   45 a       45       |   0.08779       0.8   |
     |   44 a       44       |   54 a       54       |  -0.07468       0.6   |
     |   44 a       44       |   83 a       83       |  -0.06979       0.5   |
     |   42 a       42       |   61 a       61       |  -0.06784       0.5   |
     |   44 a       44       |   52 a       52       |   0.06061       0.4   |
     |   43 a       43       |   47 a       47       |   0.05954       0.4   |
     +=======================+=======================+=======================+
     norm of printed elements:  0.91673


       Energy:     0.2243459 H      6.10476 eV    49238.232 cm-1

     +=======================================================================+
     | type: RE0                    symmetry: a               state:    9    |
     +-----------------------+-----------------------+-----------------------+
     | occ. orb.  index spin | vir. orb.  index spin |  coeff/|amp|     %    |
     +=======================+=======================+=======================+
     |   44 a       44       |   48 a       48       |   0.89067      79.3   |
     |   44 a       44       |   47 a       47       |  -0.19599       3.8   |
     |   44 a       44       |   51 a       51       |   0.17654       3.1   |
     |   44 a       44       |   77 a       77       |   0.11091       1.2   |
     |   44 a       44       |   67 a       67       |   0.10709       1.1   |
     |   41 a       41       |   48 a       48       |   0.10311       1.1   |
     |   44 a       44       |   70 a       70       |  -0.08831       0.8   |
     |   44 a       44       |   80 a       80       |  -0.07924       0.6   |
     |   44 a       44       |   72 a       72       |  -0.07869       0.6   |
     |   44 a       44       |   73 a       73       |   0.07489       0.6   |
     |   44 a       44       |   57 a       57       |  -0.07450       0.6   |
     |   44 a       44       |   62 a       62       |  -0.07279       0.5   |
     |   44 a       44       |   61 a       61       |   0.07036       0.5   |
     |   30 a       30       |   48 a       48       |   0.05764       0.3   |
     |   44 a       44       |   66 a       66       |  -0.05564       0.3   |
     |   35 a       35       |   48 a       48       |   0.05488       0.3   |
     |   44 a       44       |   83 a       83       |  -0.05413       0.3   |
     +=======================+=======================+=======================+
     norm of printed elements:  0.95132


       Energy:     0.2278022 H      6.19881 eV    49996.807 cm-1

     +=======================================================================+
     | type: RE0                    symmetry: a               state:   10    |
     +-----------------------+-----------------------+-----------------------+
     | occ. orb.  index spin | vir. orb.  index spin |  coeff/|amp|     %    |
     +=======================+=======================+=======================+
     |   44 a       44       |   61 a       61       |  -0.48070      23.1   |
     |   44 a       44       |   56 a       56       |   0.40381      16.3   |
     |   44 a       44       |   60 a       60       |   0.38091      14.5   |
     |   43 a       43       |   53 a       53       |  -0.35734      12.8   |
     |   41 a       41       |   46 a       46       |   0.20342       4.1   |
     |   44 a       44       |   66 a       66       |   0.19222       3.7   |
     |   43 a       43       |   52 a       52       |   0.16927       2.9   |
     |   44 a       44       |   68 a       68       |  -0.14855       2.2   |
     |   44 a       44       |   65 a       65       |  -0.13494       1.8   |
     |   44 a       44       |   52 a       52       |   0.13009       1.7   |
     |   41 a       41       |   45 a       45       |  -0.10509       1.1   |
     |   44 a       44       |   47 a       47       |   0.10074       1.0   |
     |   44 a       44       |   63 a       63       |   0.09789       1.0   |
     |   44 a       44       |   55 a       55       |   0.09410       0.9   |
     |   44 a       44       |   72 a       72       |  -0.08991       0.8   |
     |   38 a       38       |   53 a       53       |  -0.08651       0.7   |
     |   44 a       44       |   48 a       48       |   0.08581       0.7   |
     |   44 a       44       |   75 a       75       |  -0.08207       0.7   |
     |   44 a       44       |   58 a       58       |   0.07261       0.5   |
     |   43 a       43       |   59 a       59       |   0.06863       0.5   |
     +=======================+=======================+=======================+
     norm of printed elements:  0.91037


       Energy:     0.2386876 H      6.49502 eV    52385.875 cm-1

     +=======================================================================+
     | type: RE0                    symmetry: a               state:   11    |
     +-----------------------+-----------------------+-----------------------+
     | occ. orb.  index spin | vir. orb.  index spin |  coeff/|amp|     %    |
     +=======================+=======================+=======================+
     |   44 a       44       |   49 a       49       |   0.58748      34.5   |
     |   44 a       44       |   51 a       51       |  -0.41662      17.4   |
     |   44 a       44       |   45 a       45       |  -0.33034      10.9   |
     |   44 a       44       |   47 a       47       |   0.30146       9.1   |
     |   43 a       43       |   47 a       47       |  -0.17622       3.1   |
     |   44 a       44       |   46 a       46       |  -0.17472       3.1   |
     |   44 a       44       |   50 a       50       |   0.14575       2.1   |
     |   44 a       44       |   73 a       73       |   0.13080       1.7   |
     |   44 a       44       |   67 a       67       |   0.12817       1.6   |
     |   44 a       44       |   58 a       58       |   0.12361       1.5   |
     |   38 a       38       |   47 a       47       |  -0.10576       1.1   |
     |   44 a       44       |   54 a       54       |  -0.09167       0.8   |
     |   44 a       44       |   74 a       74       |  -0.07974       0.6   |
     |   44 a       44       |   62 a       62       |  -0.07907       0.6   |
     |   44 a       44       |   80 a       80       |   0.07877       0.6   |
     |   44 a       44       |   55 a       55       |   0.07837       0.6   |
     |   38 a       38       |   45 a       45       |   0.07060       0.5   |
     |   43 a       43       |   45 a       45       |   0.07028       0.5   |
     |   44 a       44       |   76 a       76       |   0.07009       0.5   |
     |   44 a       44       |   78 a       78       |   0.06871       0.5   |
     +=======================+=======================+=======================+
     norm of printed elements:  0.91444


       Energy:     0.2437989 H      6.63410 eV    53507.666 cm-1

     +=======================================================================+
     | type: RE0                    symmetry: a               state:   12    |
     +-----------------------+-----------------------+-----------------------+
     | occ. orb.  index spin | vir. orb.  index spin |  coeff/|amp|     %    |
     +=======================+=======================+=======================+
     |   43 a       43       |   45 a       45       |   0.50359      25.4   |
     |   43 a       43       |   53 a       53       |   0.43791      19.2   |
     |   43 a       43       |   47 a       47       |   0.31573      10.0   |
     |   43 a       43       |   52 a       52       |  -0.24803       6.2   |
     |   43 a       43       |   46 a       46       |   0.22527       5.1   |
     |   44 a       44       |   47 a       47       |  -0.17567       3.1   |
     |   38 a       38       |   45 a       45       |   0.15733       2.5   |
     |   43 a       43       |   50 a       50       |   0.15256       2.3   |
     |   43 a       43       |   49 a       49       |   0.14302       2.0   |
     |   44 a       44       |   52 a       52       |   0.13923       1.9   |
     |   38 a       38       |   53 a       53       |   0.12923       1.7   |
     |   44 a       44       |   56 a       56       |   0.12147       1.5   |
     |   44 a       44       |   61 a       61       |  -0.12122       1.5   |
     |   44 a       44       |   50 a       50       |   0.11966       1.4   |
     |   44 a       44       |   60 a       60       |   0.11499       1.3   |
     |   43 a       43       |   51 a       51       |  -0.11182       1.3   |
     |   44 a       44       |   46 a       46       |   0.10128       1.0   |
     |   43 a       43       |   72 a       72       |  -0.09656       0.9   |
     |   41 a       41       |   46 a       46       |   0.09554       0.9   |
     |   43 a       43       |   70 a       70       |  -0.09170       0.8   |
     +=======================+=======================+=======================+
     norm of printed elements:  0.89936


       Energy:     0.2455451 H      6.68162 eV    53890.916 cm-1

     +=======================================================================+
     | type: RE0                    symmetry: a               state:   13    |
     +-----------------------+-----------------------+-----------------------+
     | occ. orb.  index spin | vir. orb.  index spin |  coeff/|amp|     %    |
     +=======================+=======================+=======================+
     |   43 a       43       |   53 a       53       |   0.51984      27.0   |
     |   43 a       43       |   45 a       45       |  -0.39075      15.3   |
     |   43 a       43       |   52 a       52       |  -0.31003       9.6   |
     |   43 a       43       |   46 a       46       |  -0.22911       5.2   |
     |   43 a       43       |   47 a       47       |  -0.18736       3.5   |
     |   43 a       43       |   51 a       51       |   0.18282       3.3   |
     |   43 a       43       |   49 a       49       |  -0.18280       3.3   |
     |   44 a       44       |   50 a       50       |  -0.17204       3.0   |
     |   44 a       44       |   52 a       52       |   0.16469       2.7   |
     |   38 a       38       |   53 a       53       |   0.15434       2.4   |
     |   44 a       44       |   61 a       61       |  -0.14432       2.1   |
     |   44 a       44       |   47 a       47       |   0.14397       2.1   |
     |   38 a       38       |   46 a       46       |  -0.11737       1.4   |
     |   44 a       44       |   56 a       56       |   0.11356       1.3   |
     |   41 a       41       |   46 a       46       |   0.10692       1.1   |
     |   44 a       44       |   49 a       49       |  -0.09501       0.9   |
     |   44 a       44       |   60 a       60       |   0.09488       0.9   |
     |   38 a       38       |   52 a       52       |  -0.08544       0.7   |
     |   43 a       43       |   63 a       63       |   0.08160       0.7   |
     |   38 a       38       |   45 a       45       |  -0.08127       0.7   |
     +=======================+=======================+=======================+
     norm of printed elements:  0.87226


       Energy:     0.2547856 H      6.93307 eV    55918.976 cm-1

     +=======================================================================+
     | type: RE0                    symmetry: a               state:   14    |
     +-----------------------+-----------------------+-----------------------+
     | occ. orb.  index spin | vir. orb.  index spin |  coeff/|amp|     %    |
     +=======================+=======================+=======================+
     |   44 a       44       |   50 a       50       |  -0.75003      56.3   |
     |   44 a       44       |   54 a       54       |   0.31248       9.8   |
     |   44 a       44       |   49 a       49       |   0.26410       7.0   |
     |   43 a       43       |   48 a       48       |  -0.19827       3.9   |
     |   43 a       43       |   45 a       45       |   0.16404       2.7   |
     |   43 a       43       |   51 a       51       |  -0.12237       1.5   |
     |   43 a       43       |   49 a       49       |   0.10719       1.1   |
     |   44 a       44       |   51 a       51       |   0.10671       1.1   |
     |   44 a       44       |   45 a       45       |   0.10646       1.1   |
     |   44 a       44       |   47 a       47       |   0.10136       1.0   |
     |   41 a       41       |   50 a       50       |  -0.09977       1.0   |
     |   44 a       44       |   80 a       80       |  -0.08483       0.7   |
     |   44 a       44       |   78 a       78       |   0.08164       0.7   |
     |   43 a       43       |   46 a       46       |   0.07945       0.6   |
     |   43 a       43       |   50 a       50       |   0.07298       0.5   |
     |   41 a       41       |   54 a       54       |   0.07093       0.5   |
     |   44 a       44       |   83 a       83       |   0.06521       0.4   |
     |   44 a       44       |   46 a       46       |   0.06355       0.4   |
     |   43 a       43       |   47 a       47       |  -0.06220       0.4   |
     |   38 a       38       |   47 a       47       |  -0.06173       0.4   |
     +=======================+=======================+=======================+
     norm of printed elements:  0.91208


       Energy:     0.2557379 H      6.95898 eV    56127.989 cm-1

     +=======================================================================+
     | type: RE0                    symmetry: a               state:   15    |
     +-----------------------+-----------------------+-----------------------+
     | occ. orb.  index spin | vir. orb.  index spin |  coeff/|amp|     %    |
     +=======================+=======================+=======================+
     |   44 a       44       |   52 a       52       |   0.80080      64.1   |
     |   44 a       44       |   53 a       53       |   0.38885      15.1   |
     |   43 a       43       |   53 a       53       |  -0.19338       3.7   |
     |   44 a       44       |   56 a       56       |  -0.13347       1.8   |
     |   41 a       41       |   52 a       52       |   0.12133       1.5   |
     |   44 a       44       |   68 a       68       |   0.11863       1.4   |
     |   44 a       44       |   61 a       61       |   0.10208       1.0   |
     |   44 a       44       |   60 a       60       |  -0.09977       1.0   |
     |   44 a       44       |   51 a       51       |  -0.09453       0.9   |
     |   38 a       38       |   53 a       53       |  -0.08939       0.8   |
     |   38 a       38       |   52 a       52       |  -0.08247       0.7   |
     |   44 a       44       |   94 a       94       |  -0.07429       0.6   |
     |   44 a       44       |   66 a       66       |  -0.07041       0.5   |
     |   30 a       30       |   52 a       52       |   0.06669       0.4   |
     |   44 a       44       |   46 a       46       |   0.06448       0.4   |
     |   44 a       44       |   54 a       54       |  -0.05481       0.3   |
     |   44 a       44       |   45 a       45       |  -0.05447       0.3   |
     |   35 a       35       |   52 a       52       |   0.05152       0.3   |
     |   30 a       30       |   53 a       53       |   0.04728       0.2   |
     |   44 a       44       |   49 a       49       |  -0.04635       0.2   |
     +=======================+=======================+=======================+
     norm of printed elements:  0.95268



     Info: copy ADC(2) right eigenvectors into left eigenvector files.


                    ========   CC DENSITY MODULE   ========

                      current wave-function model: ADC(2)  

  calculating overlap between   15 left and right vector(s)
    density nr.      cpu/min        wall/min    L     R
   ------------------------------------------------------
         1             1.78            1.84    LE0    RE0 
         2             1.78            1.85    LE0    RE0 
         3             1.78            1.84    LE0    RE0 
         4             1.78            1.85    LE0    RE0 
         5             1.78            1.85    LE0    RE0 
         6             1.78            1.84    LE0    RE0 
         7             1.78            1.85    LE0    RE0 
         8             1.78            1.85    LE0    RE0 
         9             1.78            1.85    LE0    RE0 
        10             1.78            1.85    LE0    RE0 
        11             1.78            1.85    LE0    RE0 
        12             1.78            1.85    LE0    RE0 
        13             1.78            1.87    LE0    RE0 
        14             1.78            1.86    LE0    RE0 
        15             1.78            1.85    LE0    RE0 
   ------------------------------------------------------
     time in cc_1den       cpu: 26 min 44 s  wall: 27 min 46 s  ratio:  1.0



     +==========================================================+
     |   contributions of excitation levels to excited states   |
     |     wavefunctions as computed from the <L|R> overlap     |
     +----------------------------------------------------------+
     | sym | multi | state |    E / eV  | % singles | % doubles |
     +==========================================================+
     | a   |   1   |   1   |    3.75357 |   89.71   |   10.29   |
     | a   |   1   |   2   |    4.04568 |   87.79   |   12.21   |
     | a   |   1   |   3   |    4.44590 |   90.11   |    9.89   |
     | a   |   1   |   4   |    4.62100 |   89.12   |   10.88   |
     | a   |   1   |   5   |    5.30767 |   91.15   |    8.85   |
     | a   |   1   |   6   |    5.36631 |   89.01   |   10.99   |
     | a   |   1   |   7   |    5.95551 |   89.40   |   10.60   |
     | a   |   1   |   8   |    5.98215 |   90.72   |    9.28   |
     | a   |   1   |   9   |    6.10476 |   90.95   |    9.05   |
     | a   |   1   |  10   |    6.19881 |   89.33   |   10.67   |
     | a   |   1   |  11   |    6.49502 |   90.93   |    9.07   |
     | a   |   1   |  12   |    6.63410 |   90.41   |    9.59   |
     | a   |   1   |  13   |    6.68162 |   90.33   |    9.67   |
     | a   |   1   |  14   |    6.93307 |   91.01   |    8.99   |
     | a   |   1   |  15   |    6.95898 |   91.22   |    8.78   |
     +==========================================================+



      The semi-canonical algorithm will be used for densities


                    ========   CC DENSITY MODULE   ========

                      current wave-function model: ADC(2)  

  calculating    15 xi densities

   a semicanonical algorithm will be used

    density nr.      cpu/min        wall/min    L     R
   ------------------------------------------------------
         1             3.16            3.51    LE0    R0  
         2             3.12            3.50    LE0    R0  
         3             3.15            3.45    LE0    R0  
         4             3.12            3.42    LE0    R0  
         5             3.11            3.41    LE0    R0  
         6             3.15            3.47    LE0    R0  
         7             3.11            3.41    LE0    R0  
         8             3.14            3.81    LE0    R0  
         9             3.16            3.51    LE0    R0  
        10             3.14            3.45    LE0    R0  
        11             3.12            3.43    LE0    R0  
        12             3.15            3.52    LE0    R0  
        13             3.14            3.45    LE0    R0  
        14             3.15            3.45    LE0    R0  
        15             3.13            3.41    LE0    R0  
   ------------------------------------------------------
     time in cc_1den       cpu: 47 min  3 s  wall: 52 min 12 s  ratio:  0.9


 **************************************************************
 *                                                            *
 *<<<<<<<<<<<<  ONE-PHOTON ABSORPTION STRENGTHS  >>>>>>>>>>>>>*
 *                                                            *
 **************************************************************



  +=========================================================================+
  |  Transition                                             model: ADC(2)   |
  |    number, symmetry, multiplicity:    1 a    1                          |
  |    frequency :   0.1379411882 a.u.     3.75357 e.V.     30274.6 rcm     |
  +=========================================================================+

     +-----------+-----------------+-----------------+---------------------+
     | operator  |   left moment   |  right moment   | transition strength |
     +-----------+-----------------+-----------------+---------------------+
     | xdiplen   |     -0.00961705 |     -0.00961705 |       0.00009249    |
     | ydiplen   |     -0.00366336 |     -0.00366336 |       0.00001342    |
     | zdiplen   |     -0.00008387 |     -0.00008387 |       0.00000001    |
     | xdipvel   |     -0.00134116 |      0.00134116 |       0.00000180    |
     | ydipvel   |     -0.00050427 |      0.00050427 |       0.00000025    |
     | zdipvel   |      0.00004920 |     -0.00004920 |       0.00000000    |
     | xangmom   |      0.53405299 |     -0.53405299 |       0.28521259    |
     | yangmom   |      0.18277406 |     -0.18277406 |       0.03340636    |
     | zangmom   |     -0.00194060 |      0.00194060 |       0.00000377    |
     +-----------+-----------------+-----------------+---------------------+
 
       oscillator strength (length gauge)   :      0.00000974
       oscillator strength (velocity gauge) :      0.00000993
       oscillator strength (mixed gauge)    :      0.00000983
 
       rotator strength (length gauge)      :     -0.00290271 a.u.
       Rotator strength (length gauge)      :     -1.36846401 10^(-40)*erg*cm^3
       rotator strength (velocity gauge)    :     -0.00293065 a.u.
       Rotator strength (velocity gauge)    :     -1.38163690 10^(-40)*erg*cm^3
 


  +=========================================================================+
  |  Transition                                             model: ADC(2)   |
  |    number, symmetry, multiplicity:    2 a    1                          |
  |    frequency :   0.1486759135 a.u.     4.04568 e.V.     32630.6 rcm     |
  +=========================================================================+

     +-----------+-----------------+-----------------+---------------------+
     | operator  |   left moment   |  right moment   | transition strength |
     +-----------+-----------------+-----------------+---------------------+
     | xdiplen   |     -1.70498847 |     -1.70498847 |       2.90698569    |
     | ydiplen   |     -0.73768880 |     -0.73768880 |       0.54418476    |
     | zdiplen   |     -0.01640890 |     -0.01640890 |       0.00026925    |
     | xdipvel   |     -0.25241815 |      0.25241815 |       0.06371492    |
     | ydipvel   |     -0.10307821 |      0.10307821 |       0.01062512    |
     | zdipvel   |     -0.00405694 |      0.00405694 |       0.00001646    |
     | xangmom   |      0.00351346 |     -0.00351346 |       0.00001234    |
     | yangmom   |     -0.00798338 |      0.00798338 |       0.00006373    |
     | zangmom   |     -0.38309508 |      0.38309508 |       0.14676184    |
     +-----------+-----------------+-----------------+---------------------+
 
       oscillator strength (length gauge)   :      0.34209730
       oscillator strength (velocity gauge) :      0.33341647
       oscillator strength (mixed gauge)    :      0.33765083
 
       rotator strength (length gauge)      :      0.00309251 a.u.
       Rotator strength (length gauge)      :      1.45794207 10^(-40)*erg*cm^3
       rotator strength (velocity gauge)    :      0.00501172 a.u.
       Rotator strength (velocity gauge)    :      2.36274539 10^(-40)*erg*cm^3
 


  +=========================================================================+
  |  Transition                                             model: ADC(2)   |
  |    number, symmetry, multiplicity:    3 a    1                          |
  |    frequency :   0.1633836439 a.u.     4.44590 e.V.     35858.6 rcm     |
  +=========================================================================+

     +-----------+-----------------+-----------------+---------------------+
     | operator  |   left moment   |  right moment   | transition strength |
     +-----------+-----------------+-----------------+---------------------+
     | xdiplen   |     -0.00525271 |     -0.00525271 |       0.00002759    |
     | ydiplen   |     -0.00138073 |     -0.00138073 |       0.00000191    |
     | zdiplen   |      0.06724521 |      0.06724521 |       0.00452192    |
     | xdipvel   |     -0.00083045 |      0.00083045 |       0.00000069    |
     | ydipvel   |     -0.00015682 |      0.00015682 |       0.00000002    |
     | zdipvel   |      0.01542381 |     -0.01542381 |       0.00023789    |
     | xangmom   |      0.37417091 |     -0.37417091 |       0.14000387    |
     | yangmom   |     -1.06754756 |      1.06754756 |       1.13965780    |
     | zangmom   |      0.00582529 |     -0.00582529 |       0.00003393    |
     +-----------+-----------------+-----------------+---------------------+
 
       oscillator strength (length gauge)   :      0.00049575
       oscillator strength (velocity gauge) :      0.00097361
       oscillator strength (mixed gauge)    :      0.00069450
 
       rotator strength (length gauge)      :     -0.00004985 a.u.
       Rotator strength (length gauge)      :     -0.02349945 10^(-40)*erg*cm^3
       rotator strength (velocity gauge)    :     -0.00016362 a.u.
       Rotator strength (velocity gauge)    :     -0.07713956 10^(-40)*erg*cm^3
 


  +=========================================================================+
  |  Transition                                             model: ADC(2)   |
  |    number, symmetry, multiplicity:    4 a    1                          |
  |    frequency :   0.1698184989 a.u.     4.62100 e.V.     37270.9 rcm     |
  +=========================================================================+

     +-----------+-----------------+-----------------+---------------------+
     | operator  |   left moment   |  right moment   | transition strength |
     +-----------+-----------------+-----------------+---------------------+
     | xdiplen   |     -0.32739764 |     -0.32739764 |       0.10718921    |
     | ydiplen   |     -0.30874778 |     -0.30874778 |       0.09532519    |
     | zdiplen   |     -0.00708493 |     -0.00708493 |       0.00005020    |
     | xdipvel   |     -0.05372732 |      0.05372732 |       0.00288662    |
     | ydipvel   |     -0.06407986 |      0.06407986 |       0.00410623    |
     | zdipvel   |     -0.00209795 |      0.00209795 |       0.00000440    |
     | xangmom   |      0.01521267 |     -0.01521267 |       0.00023143    |
     | yangmom   |     -0.01744596 |      0.01744596 |       0.00030436    |
     | zangmom   |     -0.65149094 |      0.65149094 |       0.42444044    |
     +-----------+-----------------+-----------------+---------------------+
 
       oscillator strength (length gauge)   :      0.02293281
       oscillator strength (velocity gauge) :      0.02746954
       oscillator strength (mixed gauge)    :      0.02492638
 
       rotator strength (length gauge)      :      0.00251079 a.u.
       Rotator strength (length gauge)      :      1.18369442 10^(-40)*erg*cm^3
       rotator strength (velocity gauge)    :      0.00490933 a.u.
       Rotator strength (velocity gauge)    :      2.31447363 10^(-40)*erg*cm^3
 


  +=========================================================================+
  |  Transition                                             model: ADC(2)   |
  |    number, symmetry, multiplicity:    5 a    1                          |
  |    frequency :   0.1950533395 a.u.     5.30767 e.V.     42809.3 rcm     |
  +=========================================================================+

     +-----------+-----------------+-----------------+---------------------+
     | operator  |   left moment   |  right moment   | transition strength |
     +-----------+-----------------+-----------------+---------------------+
     | xdiplen   |      0.39299552 |      0.39299552 |       0.15444548    |
     | ydiplen   |     -0.19781708 |     -0.19781708 |       0.03913160    |
     | zdiplen   |     -0.07382908 |     -0.07382908 |       0.00545073    |
     | xdipvel   |      0.07178531 |     -0.07178531 |       0.00515313    |
     | ydipvel   |     -0.02843323 |      0.02843323 |       0.00080845    |
     | zdipvel   |     -0.02954284 |      0.02954284 |       0.00087278    |
     | xangmom   |      0.19526775 |     -0.19526775 |       0.03812949    |
     | yangmom   |     -0.44955897 |      0.44955897 |       0.20210326    |
     | zangmom   |      0.21265228 |     -0.21265228 |       0.04522099    |
     +-----------+-----------------+-----------------+---------------------+
 
       oscillator strength (length gauge)   :      0.02588069
       oscillator strength (velocity gauge) :      0.02335894
       oscillator strength (mixed gauge)    :      0.02401134
 
       rotator strength (length gauge)      :      0.07498493 a.u.
       Rotator strength (length gauge)      :     35.35116406 10^(-40)*erg*cm^3
       rotator strength (velocity gauge)    :      0.05259438 a.u.
       Rotator strength (velocity gauge)    :     24.79528147 10^(-40)*erg*cm^3
 


  +=========================================================================+
  |  Transition                                             model: ADC(2)   |
  |    number, symmetry, multiplicity:    6 a    1                          |
  |    frequency :   0.1972082106 a.u.     5.36631 e.V.     43282.2 rcm     |
  +=========================================================================+

     +-----------+-----------------+-----------------+---------------------+
     | operator  |   left moment   |  right moment   | transition strength |
     +-----------+-----------------+-----------------+---------------------+
     | xdiplen   |     -0.80842202 |     -0.80842202 |       0.65354616    |
     | ydiplen   |      0.40412875 |      0.40412875 |       0.16332005    |
     | zdiplen   |     -0.04512259 |     -0.04512259 |       0.00203605    |
     | xdipvel   |     -0.15166482 |      0.15166482 |       0.02300222    |
     | ydipvel   |      0.05831674 |     -0.05831674 |       0.00340084    |
     | zdipvel   |     -0.01682579 |      0.01682579 |       0.00028311    |
     | xangmom   |      0.09645254 |     -0.09645254 |       0.00930309    |
     | yangmom   |     -0.22381540 |      0.22381540 |       0.05009334    |
     | zangmom   |     -0.50019909 |      0.50019909 |       0.25019913    |
     +-----------+-----------------+-----------------+---------------------+
 
       oscillator strength (length gauge)   :      0.10766283
       oscillator strength (velocity gauge) :      0.09021317
       oscillator strength (mixed gauge)    :      0.09795725
 
       rotator strength (length gauge)      :     -0.07292716 a.u.
       Rotator strength (length gauge)      :    -34.38103968 10^(-40)*erg*cm^3
       rotator strength (velocity gauge)    :     -0.04884279 a.u.
       Rotator strength (velocity gauge)    :    -23.02661869 10^(-40)*erg*cm^3
 


  +=========================================================================+
  |  Transition                                             model: ADC(2)   |
  |    number, symmetry, multiplicity:    7 a    1                          |
  |    frequency :   0.2188611224 a.u.     5.95551 e.V.     48034.5 rcm     |
  +=========================================================================+

     +-----------+-----------------+-----------------+---------------------+
     | operator  |   left moment   |  right moment   | transition strength |
     +-----------+-----------------+-----------------+---------------------+
     | xdiplen   |      0.62915209 |      0.62915209 |       0.39583236    |
     | ydiplen   |     -0.95884083 |     -0.95884083 |       0.91937575    |
     | zdiplen   |     -0.08437186 |     -0.08437186 |       0.00711861    |
     | xdipvel   |      0.13663305 |     -0.13663305 |       0.01866859    |
     | ydipvel   |     -0.21237160 |      0.21237160 |       0.04510170    |
     | zdipvel   |     -0.01821483 |      0.01821483 |       0.00033178    |
     | xangmom   |     -0.09742536 |      0.09742536 |       0.00949170    |
     | yangmom   |     -0.08977689 |      0.08977689 |       0.00805989    |
     | zangmom   |     -1.19734211 |      1.19734211 |       1.43362812    |
     +-----------+-----------------+-----------------+---------------------+
 
       oscillator strength (length gauge)   :      0.19293727
       oscillator strength (velocity gauge) :      0.19525949
       oscillator strength (mixed gauge)    :      0.19408690
 
       rotator strength (length gauge)      :      0.06290418 a.u.
       Rotator strength (length gauge)      :     29.65577035 10^(-40)*erg*cm^3
       rotator strength (velocity gauge)    :      0.06297126 a.u.
       Rotator strength (velocity gauge)    :     29.68739586 10^(-40)*erg*cm^3
 


  +=========================================================================+
  |  Transition                                             model: ADC(2)   |
  |    number, symmetry, multiplicity:    8 a    1                          |
  |    frequency :   0.2198398249 a.u.     5.98215 e.V.     48249.3 rcm     |
  +=========================================================================+

     +-----------+-----------------+-----------------+---------------------+
     | operator  |   left moment   |  right moment   | transition strength |
     +-----------+-----------------+-----------------+---------------------+
     | xdiplen   |     -0.41191674 |     -0.41191674 |       0.16967540    |
     | ydiplen   |      0.56380497 |      0.56380497 |       0.31787604    |
     | zdiplen   |     -0.20230685 |     -0.20230685 |       0.04092806    |
     | xdipvel   |     -0.09042993 |      0.09042993 |       0.00817757    |
     | ydipvel   |      0.12539785 |     -0.12539785 |       0.01572462    |
     | zdipvel   |     -0.04573341 |      0.04573341 |       0.00209155    |
     | xangmom   |     -0.17345712 |      0.17345712 |       0.03008737    |
     | yangmom   |     -0.20827669 |      0.20827669 |       0.04337918    |
     | zangmom   |      0.57682622 |     -0.57682622 |       0.33272849    |
     +-----------+-----------------+-----------------+---------------------+
 
       oscillator strength (length gauge)   :      0.07745389
       oscillator strength (velocity gauge) :      0.07882629
       oscillator strength (mixed gauge)    :      0.07813448
 
       rotator strength (length gauge)      :     -0.08133672 a.u.
       Rotator strength (length gauge)      :    -38.34567196 10^(-40)*erg*cm^3
       rotator strength (velocity gauge)    :     -0.08372452 a.u.
       Rotator strength (velocity gauge)    :    -39.47138376 10^(-40)*erg*cm^3
 


  +=========================================================================+
  |  Transition                                             model: ADC(2)   |
  |    number, symmetry, multiplicity:    9 a    1                          |
  |    frequency :   0.2243458935 a.u.     6.10476 e.V.     49238.2 rcm     |
  +=========================================================================+

     +-----------+-----------------+-----------------+---------------------+
     | operator  |   left moment   |  right moment   | transition strength |
     +-----------+-----------------+-----------------+---------------------+
     | xdiplen   |     -0.00775007 |     -0.00775007 |       0.00006006    |
     | ydiplen   |      0.02440212 |      0.02440212 |       0.00059546    |
     | zdiplen   |     -0.16459988 |     -0.16459988 |       0.02709312    |
     | xdipvel   |     -0.00265740 |      0.00265740 |       0.00000706    |
     | ydipvel   |      0.00727407 |     -0.00727407 |       0.00005291    |
     | zdipvel   |     -0.04393531 |      0.04393531 |       0.00193031    |
     | xangmom   |      0.08878687 |     -0.08878687 |       0.00788311    |
     | yangmom   |     -0.43904149 |      0.43904149 |       0.19275743    |
     | zangmom   |      0.01648475 |     -0.01648475 |       0.00027175    |
     +-----------+-----------------+-----------------+---------------------+
 
       oscillator strength (length gauge)   :      0.00415020
       oscillator strength (velocity gauge) :      0.00591434
       oscillator strength (mixed gauge)    :      0.00495323
 
       rotator strength (length gauge)      :     -0.00705752 a.u.
       Rotator strength (length gauge)      :     -3.32722084 10^(-40)*erg*cm^3
       rotator strength (velocity gauge)    :     -0.00925763 a.u.
       Rotator strength (velocity gauge)    :     -4.36444966 10^(-40)*erg*cm^3
 


  +=========================================================================+
  |  Transition                                             model: ADC(2)   |
  |    number, symmetry, multiplicity:   10 a    1                          |
  |    frequency :   0.2278022164 a.u.     6.19881 e.V.     49996.8 rcm     |
  +=========================================================================+

     +-----------+-----------------+-----------------+---------------------+
     | operator  |   left moment   |  right moment   | transition strength |
     +-----------+-----------------+-----------------+---------------------+
     | xdiplen   |      0.43367571 |      0.43367571 |       0.18807462    |
     | ydiplen   |     -0.39039128 |     -0.39039128 |       0.15240535    |
     | zdiplen   |     -0.07195999 |     -0.07195999 |       0.00517824    |
     | xdipvel   |      0.09256041 |     -0.09256041 |       0.00856743    |
     | ydipvel   |     -0.11154999 |      0.11154999 |       0.01244340    |
     | zdipvel   |     -0.01957643 |      0.01957643 |       0.00038324    |
     | xangmom   |      0.00208455 |     -0.00208455 |       0.00000435    |
     | yangmom   |     -0.12615264 |      0.12615264 |       0.01591449    |
     | zangmom   |     -0.00149355 |      0.00149355 |       0.00000223    |
     +-----------+-----------------+-----------------+---------------------+
 
       oscillator strength (length gauge)   :      0.05249447
       oscillator strength (velocity gauge) :      0.06261006
       oscillator strength (mixed gauge)    :      0.05673204
 
       rotator strength (length gauge)      :      0.02513019 a.u.
       Rotator strength (length gauge)      :     11.84746755 10^(-40)*erg*cm^3
       rotator strength (velocity gauge)    :      0.03137483 a.u.
       Rotator strength (velocity gauge)    :     14.79146110 10^(-40)*erg*cm^3
 


  +=========================================================================+
  |  Transition                                             model: ADC(2)   |
  |    number, symmetry, multiplicity:   11 a    1                          |
  |    frequency :   0.2386876101 a.u.     6.49502 e.V.     52385.9 rcm     |
  +=========================================================================+

     +-----------+-----------------+-----------------+---------------------+
     | operator  |   left moment   |  right moment   | transition strength |
     +-----------+-----------------+-----------------+---------------------+
     | xdiplen   |     -0.07313213 |     -0.07313213 |       0.00534831    |
     | ydiplen   |     -0.01495376 |     -0.01495376 |       0.00022362    |
     | zdiplen   |     -0.02787614 |     -0.02787614 |       0.00077708    |
     | xdipvel   |     -0.01554366 |      0.01554366 |       0.00024161    |
     | ydipvel   |     -0.00050580 |      0.00050580 |       0.00000026    |
     | zdipvel   |     -0.01422185 |      0.01422185 |       0.00020226    |
     | xangmom   |     -0.10697814 |      0.10697814 |       0.01144432    |
     | yangmom   |      0.00990291 |     -0.00990291 |       0.00009807    |
     | zangmom   |     -0.03831033 |      0.03831033 |       0.00146768    |
     +-----------+-----------------+-----------------+---------------------+
 
       oscillator strength (length gauge)   :      0.00101029
       oscillator strength (velocity gauge) :      0.00124046
       oscillator strength (mixed gauge)    :      0.00102717
 
       rotator strength (length gauge)      :      0.00437170 a.u.
       Rotator strength (length gauge)      :      2.06100936 10^(-40)*erg*cm^3
       rotator strength (velocity gauge)    :      0.00461412 a.u.
       Rotator strength (velocity gauge)    :      2.17529713 10^(-40)*erg*cm^3
 


  +=========================================================================+
  |  Transition                                             model: ADC(2)   |
  |    number, symmetry, multiplicity:   12 a    1                          |
  |    frequency :   0.2437988676 a.u.     6.63410 e.V.     53507.7 rcm     |
  +=========================================================================+

     +-----------+-----------------+-----------------+---------------------+
     | operator  |   left moment   |  right moment   | transition strength |
     +-----------+-----------------+-----------------+---------------------+
     | xdiplen   |     -0.79006567 |     -0.79006567 |       0.62420376    |
     | ydiplen   |     -0.53147671 |     -0.53147671 |       0.28246749    |
     | zdiplen   |     -0.02982246 |     -0.02982246 |       0.00088938    |
     | xdipvel   |     -0.18607526 |      0.18607526 |       0.03462400    |
     | ydipvel   |     -0.11064099 |      0.11064099 |       0.01224143    |
     | zdipvel   |     -0.00652639 |      0.00652639 |       0.00004259    |
     | xangmom   |     -0.28442836 |      0.28442836 |       0.08089949    |
     | yangmom   |     -0.09088017 |      0.09088017 |       0.00825921    |
     | zangmom   |     -0.72925968 |      0.72925968 |       0.53181968    |
     +-----------+-----------------+-----------------+---------------------+
 
       oscillator strength (length gauge)   :      0.14750817
       oscillator strength (velocity gauge) :      0.12826974
       oscillator strength (mixed gauge)    :      0.13733961
 
       rotator strength (length gauge)      :      0.14738305 a.u.
       Rotator strength (length gauge)      :     69.48278852 10^(-40)*erg*cm^3
       rotator strength (velocity gauge)    :      0.13892515 a.u.
       Rotator strength (velocity gauge)    :     65.49536852 10^(-40)*erg*cm^3
 


  +=========================================================================+
  |  Transition                                             model: ADC(2)   |
  |    number, symmetry, multiplicity:   13 a    1                          |
  |    frequency :   0.2455450825 a.u.     6.68162 e.V.     53890.9 rcm     |
  +=========================================================================+

     +-----------+-----------------+-----------------+---------------------+
     | operator  |   left moment   |  right moment   | transition strength |
     +-----------+-----------------+-----------------+---------------------+
     | xdiplen   |     -0.93376296 |     -0.93376296 |       0.87191327    |
     | ydiplen   |     -0.55976319 |     -0.55976319 |       0.31333483    |
     | zdiplen   |      0.02123368 |      0.02123368 |       0.00045087    |
     | xdipvel   |     -0.22188065 |      0.22188065 |       0.04923102    |
     | ydipvel   |     -0.11404860 |      0.11404860 |       0.01300708    |
     | zdipvel   |      0.00252075 |     -0.00252075 |       0.00000635    |
     | xangmom   |      0.28568411 |     -0.28568411 |       0.08161541    |
     | yangmom   |      0.01219375 |     -0.01219375 |       0.00014869    |
     | zangmom   |     -0.85808946 |      0.85808946 |       0.73631752    |
     +-----------+-----------------+-----------------+---------------------+
 
       oscillator strength (length gauge)   :      0.19409503
       oscillator strength (velocity gauge) :      0.16899669
       oscillator strength (mixed gauge)    :      0.18071845
 
       rotator strength (length gauge)      :     -0.14590363 a.u.
       Rotator strength (length gauge)      :    -68.78532402 10^(-40)*erg*cm^3
       rotator strength (velocity gauge)    :     -0.13631200 a.u.
       Rotator strength (velocity gauge)    :    -64.26341618 10^(-40)*erg*cm^3
 


  +=========================================================================+
  |  Transition                                             model: ADC(2)   |
  |    number, symmetry, multiplicity:   14 a    1                          |
  |    frequency :   0.2547856013 a.u.     6.93307 e.V.     55919.0 rcm     |
  +=========================================================================+

     +-----------+-----------------+-----------------+---------------------+
     | operator  |   left moment   |  right moment   | transition strength |
     +-----------+-----------------+-----------------+---------------------+
     | xdiplen   |      0.02828154 |      0.02828154 |       0.00079985    |
     | ydiplen   |      0.01990604 |      0.01990604 |       0.00039625    |
     | zdiplen   |     -0.11696990 |     -0.11696990 |       0.01368196    |
     | xdipvel   |      0.00579493 |     -0.00579493 |       0.00003358    |
     | ydipvel   |      0.00532126 |     -0.00532126 |       0.00002832    |
     | zdipvel   |     -0.02687621 |      0.02687621 |       0.00072233    |
     | xangmom   |     -0.37055483 |      0.37055483 |       0.13731089    |
     | yangmom   |      0.08854342 |     -0.08854342 |       0.00783994    |
     | zangmom   |      0.10499779 |     -0.10499779 |       0.01102454    |
     +-----------+-----------------+-----------------+---------------------+
 
       oscillator strength (length gauge)   :      0.00252714
       oscillator strength (velocity gauge) :      0.00205199
       oscillator strength (mixed gauge)    :      0.00227568
 
       rotator strength (length gauge)      :     -0.01049945 a.u.
       Rotator strength (length gauge)      :     -4.94989661 10^(-40)*erg*cm^3
       rotator strength (velocity gauge)    :     -0.00882726 a.u.
       Rotator strength (velocity gauge)    :     -4.16155565 10^(-40)*erg*cm^3
 


  +=========================================================================+
  |  Transition                                             model: ADC(2)   |
  |    number, symmetry, multiplicity:   15 a    1                          |
  |    frequency :   0.2557379357 a.u.     6.95898 e.V.     56128.0 rcm     |
  +=========================================================================+

     +-----------+-----------------+-----------------+---------------------+
     | operator  |   left moment   |  right moment   | transition strength |
     +-----------+-----------------+-----------------+---------------------+
     | xdiplen   |      0.30479435 |      0.30479435 |       0.09289959    |
     | ydiplen   |      0.18573072 |      0.18573072 |       0.03449590    |
     | zdiplen   |      0.00720959 |      0.00720959 |       0.00005198    |
     | xdipvel   |      0.06730533 |     -0.06730533 |       0.00453001    |
     | ydipvel   |      0.03656377 |     -0.03656377 |       0.00133691    |
     | zdipvel   |      0.00182055 |     -0.00182055 |       0.00000331    |
     | xangmom   |      0.04310994 |     -0.04310994 |       0.00185847    |
     | yangmom   |     -0.03069550 |      0.03069550 |       0.00094221    |
     | zangmom   |      0.39046564 |     -0.39046564 |       0.15246342    |
     +-----------+-----------------+-----------------+---------------------+
 
       oscillator strength (length gauge)   :      0.02172877
       oscillator strength (velocity gauge) :      0.01530273
       oscillator strength (mixed gauge)    :      0.01821228
 
       rotator strength (length gauge)      :      0.00512683 a.u.
       Rotator strength (length gauge)      :      2.41701245 10^(-40)*erg*cm^3
       rotator strength (velocity gauge)    :      0.00486836 a.u.
       Rotator strength (velocity gauge)    :      2.29515540 10^(-40)*erg*cm^3
 
 Exporting transition densities


    ------------------------------------------------------------------------
         total  cpu-time : 10 hours 50 minutes and 53 seconds
         total wall-time : 13 hours  6 minutes and 17 seconds
    ------------------------------------------------------------------------


   ****  ricc2 : all done  ****


    2023-01-24 10:15:48.723 

