 operating system is UNIX !
 hostname is         dlt14.abaxnet

 dscf (dlt14.abaxnet) : TURBOMOLE V6.6( 19103 ) 21 May 2014 at 15:45:05
 Copyright (C) 2014 TURBOMOLE GmbH, Karlsruhe


    2023-01-23 20:33:05.671 



                             d s c f - program

                   idea & directorship : reinhart ahlrichs
                   program development : marco haeser
                                         michael baer
                           dft version : oliver treutler


                          quantum chemistry group
                          universitaet  karlsruhe
                                  germany




                          References             
                                                 
          TURBOMOLE:                             
              R. Ahlrichs, M. Baer, M. Haeser, H. Horn, and
              C. Koelmel
              Electronic structure calculations on workstation
              computers: the program system TURBOMOLE
              Chem. Phys. Lett. 162: 165 (1989)
          Density Functional:                              
              O. Treutler and R. Ahlrichs                      
              Efficient Molecular Numerical Integration Schemes
              J. Chem. Phys. 102: 346 (1995)                   
          Parallel Version:                                
              Performance of parallel TURBOMOLE for Density    
              Functional Calculations                          
              M. v. Arnim and R. Ahlrichs                      
              J. Comp. Chem. 19: 1746 (1998)                   
                                         




              +--------------------------------------------------+
              | Atomic coordinate, charge and isotop information |
              +--------------------------------------------------+

                    atomic coordinates            atom    charge  isotop
          1.18206955    1.29592339   -0.03300281    c      6.000     0
          3.17683620   -0.41555061   -0.02965522    c      6.000     0
          2.77633938   -2.98732301   -0.02467022    c      6.000     0
          0.32382161   -3.88033501   -0.02922654    c      6.000     0
         -1.72206267   -2.23204456   -0.03923294    c      6.000     0
         -1.24950450    0.39266561   -0.03613090    c      6.000     0
          1.60041432    3.28846717   -0.02833041    h      1.000     0
          4.36959428   -4.25902188   -0.01895442    h      1.000     0
         -0.02510260   -5.89569284   -0.03536786    h      1.000     0
          5.74732869    0.55825730   -0.02532488    n      7.000     0
          7.47563211   -0.95473154   -0.01605983    o      8.000     0
          6.03405077    2.84082182   -0.03067231    o      8.000     0
         -4.16671899   -3.05521138   -0.11620681    n      7.000     0
         -4.53754908   -4.86084296    0.33041182    h      1.000     0
         -5.53259035   -1.78413942    0.23555864    h      1.000     0
         -3.36063477    1.85501009   -0.02400919    o      8.000     0
         -3.05581115    4.50807964   -0.02020334    c      6.000     0
         -4.94751470    5.30441520   -0.01361237    h      1.000     0
         -2.03870038    5.13862341    1.66169871    h      1.000     0
         -2.04989772    5.14262961   -1.70700911    h      1.000     0
 
       center of nuclear mass  :    1.12068966   -0.07664294   -0.03112790
       center of nuclear charge:    0.99642542   -0.06121528   -0.02732942

   *************************************************************************
   ADC(2) - opt by CAM-B3LYP gaussian                                       
   *************************************************************************



              +--------------------------------------------------+
              |               basis set information              |
              +--------------------------------------------------+

              we will work with the 1s 3p 5d 7f 9g ... basis set
              ...i.e. with spherical basis functions...

   type   atoms  prim   cont   basis
   ---------------------------------------------------------------------------
    c        7     52     37   def2-TZVPD   [6s3p3d1f|12s6p3d1f]
    h        8     11      9   def2-TZVPD   [3s2p|5s2p]
    n        2     52     37   def2-TZVPD   [6s3p3d1f|12s6p3d1f]
    o        3     55     40   def2-TZVPD   [6s4p3d1f|12s7p3d1f]
   ---------------------------------------------------------------------------
   total:   20    721    525
   ---------------------------------------------------------------------------

   total number of primitive shells          :   74
   total number of contracted shells         :  199
   total number of cartesian basis functions :  597
   total number of SCF-basis functions       :  525


 integral neglect threshold       :  0.56E-11
 integral storage threshold THIZE :  0.10E-04
 integral storage threshold THIME :         5


 DENSITY CONVERGENCE CHECK SWITCHED ON !
 SCF CONVERGENCE IF RMS(delta[D]) <     0.1000000000E-07


 symmetry group of the molecule :   c1 

 the group has the following generators :
   c1(z)

    1 symmetry operations found

 there are 1 real representations :   a   

 maximum number of shells which are related by symmetry :  1


    mo occupation :
   irrep   mo's   occupied
    a      525       44
 
 number of basis functions   :          525
 number of occupied orbitals :           44
 

          ------------------------
          nuclear repulsion energy  :   696.407827183    
          ------------------------

 
          -----------------
          -S,T+V- integrals
          -----------------

 1e-integrals will be neglected if expon. factor < 0.559793E-12
 
   Difference densities algorithm switched on.
   The maximal number of linear combinations of
   difference densities is          20 .

 automatic virtual orbital shift switched on 
      shift if e(lumo)-e(homo) < 0.10000000    


 DIIS switched on: error vector is FDS-SDF
 Max. Iterations for DIIS is     :   5
 DIIS matrix (see manual) 
    Scaling factor of diagonals  :  1.200
    threshold for scaling factor :  0.000

 scf convergence criterion : increment of total energy < .1000000D-06
                  and increment of one-electron energy < .1000000D-03


 <geterg> : there is no data group $energy 

  MOs are in ASCII format !


 reading orbital data $scfmo  from file mos . 

 orbital characterization : expanded
 
 mo provided and orthogonalized by Cholesky decomposition

 DSCF restart information will be dumped onto file mos

 
                                              current damping :  0.300
 ITERATION  ENERGY          1e-ENERGY        2e-ENERGY     RMS[dD(SAO)]   TOL
   1  -600.90365886058    -2190.1857023     892.87421626    0.000D+00 0.558D-11
          max. resid. norm for Fia-block=  3.948D-01 for orbital     28a         
          max. resid. fock norm         =  1.072D+01 for orbital    354a         
          Delta Eig. =   935.4841405240 eV 
 
                                              current damping :  0.250
 ITERATION  ENERGY          1e-ENERGY        2e-ENERGY     RMS[dD(SAO)]   TOL
   2  -603.06687587418    -2203.9086470     904.43394398    0.563D-01 0.555D-11
          Norm of current diis error:  2.8260    
          max. resid. norm for Fia-block=  1.517D-01 for orbital     13a         
          max. resid. fock norm         =  3.383D-01 for orbital    506a         
          Delta Eig. =   213.3809984458 eV 
 
                                              current damping :  0.150
 ITERATION  ENERGY          1e-ENERGY        2e-ENERGY     RMS[dD(SAO)]   TOL
   3  -603.27303400763    -2205.1022741     905.42141291    0.908D-02 0.343D-11
          Norm of current diis error:  1.1294    
          max. resid. norm for Fia-block=  6.257D-02 for orbital     31a         
          max. resid. fock norm         =  7.689D-02 for orbital     31a         
          Delta Eig. =    50.9458138447 eV 
 
                                              current damping :  0.100
 ITERATION  ENERGY          1e-ENERGY        2e-ENERGY     RMS[dD(SAO)]   TOL
   4  -603.32250949515    -2205.3407192     905.61038252    0.341D-02 0.276D-11
          Norm of current diis error: 0.32761    
          max. resid. norm for Fia-block=  1.770D-02 for orbital     27a         
          max. resid. fock norm         =  2.580D-02 for orbital    519a         
          Delta Eig. =     5.9436002278 eV 
 
                                              current damping :  0.100
 ITERATION  ENERGY          1e-ENERGY        2e-ENERGY     RMS[dD(SAO)]   TOL
   5  -603.32803889188    -2205.6318880     905.89602191    0.133D-02 0.256D-11
          Norm of current diis error: 0.11327    
          max. resid. norm for Fia-block=  6.664D-03 for orbital     44a         
          max. resid. fock norm         =  1.528D-02 for orbital    519a         
 mo-orthogonalization: Cholesky decomposition
          Delta Eig. =     0.6401722245 eV 
 
                                              current damping :  0.150
 ITERATION  ENERGY          1e-ENERGY        2e-ENERGY     RMS[dD(SAO)]   TOL
   6  -603.32884430854    -2205.5878453     905.85117377    0.440D-03 0.241D-11
          Norm of current diis error: 0.42326E-01
          max. resid. norm for Fia-block=  3.725D-03 for orbital     44a         
          max. resid. fock norm         =  4.174D-03 for orbital    519a         
          Delta Eig. =     0.1397766578 eV 
 
                                              current damping :  0.100
 ITERATION  ENERGY          1e-ENERGY        2e-ENERGY     RMS[dD(SAO)]   TOL
   7  -603.32901701285    -2205.5797469     905.84290267    0.237D-03 0.228D-11
          Norm of current diis error: 0.19223E-01
          max. resid. norm for Fia-block=  1.917D-03 for orbital     44a         
          max. resid. fock norm         =  2.063D-03 for orbital     44a         
          Delta Eig. =     0.0521493077 eV 
 
                                              current damping :  0.150
 ITERATION  ENERGY          1e-ENERGY        2e-ENERGY     RMS[dD(SAO)]   TOL
   8  -603.32905842669    -2205.5849223     905.84803667    0.113D-03 0.216D-11
          Norm of current diis error: 0.64492E-02
          max. resid. norm for Fia-block=  7.810D-04 for orbital     44a         
          max. resid. fock norm         =  7.946D-04 for orbital     44a         
          Delta Eig. =     0.0165776039 eV 
 
                                              current damping :  0.200
 ITERATION  ENERGY          1e-ENERGY        2e-ENERGY     RMS[dD(SAO)]   TOL
   9  -603.32906376336    -2205.5819600     905.84506908    0.333D-04 0.207D-11
          Norm of current diis error: 0.25470E-02
          max. resid. norm for Fia-block=  2.860D-04 for orbital     44a         
          max. resid. fock norm         =  3.074D-04 for orbital     44a         
          Delta Eig. =     0.0098401605 eV 
 
                                              current damping :  0.100
 ITERATION  ENERGY          1e-ENERGY        2e-ENERGY     RMS[dD(SAO)]   TOL
  10  -603.32906450305    -2205.5817228     905.84483111    0.112D-04 0.201D-11
          Norm of current diis error: 0.12136E-02
          max. resid. norm for Fia-block=  1.461D-04 for orbital     44a         
          max. resid. fock norm         =  1.495D-04 for orbital    523a         
 mo-orthogonalization: Cholesky decomposition
          Delta Eig. =     0.0043337073 eV 
 
                                              current damping :  0.150
 ITERATION  ENERGY          1e-ENERGY        2e-ENERGY     RMS[dD(SAO)]   TOL
  11  -603.32906468821    -2205.5818146     905.84492275    0.570D-05 0.194D-11
          Norm of current diis error: 0.67591E-03
          max. resid. norm for Fia-block=  6.683D-05 for orbital     44a         
          max. resid. fock norm         =  8.553D-05 for orbital    523a         
          Delta Eig. =     0.0022084737 eV 
 
                                              current damping :  0.200
 ITERATION  ENERGY          1e-ENERGY        2e-ENERGY     RMS[dD(SAO)]   TOL
  12  -603.32906474140    -2205.5816589     905.84476693    0.283D-05 0.187D-11
          Norm of current diis error: 0.35202E-03
          max. resid. norm for Fia-block=  4.493D-05 for orbital     44a         
          max. resid. fock norm         =  4.553D-05 for orbital     44a         
          Delta Eig. =     0.0012739670 eV 
 
                                              current damping :  0.100
 ITERATION  ENERGY          1e-ENERGY        2e-ENERGY     RMS[dD(SAO)]   TOL
  13  -603.32906475767    -2205.5815868     905.84469485    0.159D-05 0.181D-11
          Norm of current diis error: 0.19462E-03
          max. resid. norm for Fia-block=  2.706D-05 for orbital     44a         
          max. resid. fock norm         =  2.734D-05 for orbital     44a         
          Delta Eig. =     0.0006425587 eV 
 
                                              current damping :  0.150
 ITERATION  ENERGY          1e-ENERGY        2e-ENERGY     RMS[dD(SAO)]   TOL
  14  -603.32906476329    -2205.5816057     905.84471380    0.115D-05 0.175D-11
          Norm of current diis error: 0.87616E-04
          max. resid. norm for Fia-block=  1.267D-05 for orbital     44a         
          max. resid. fock norm         =  1.293D-05 for orbital     44a         
          Delta Eig. =     0.0002574298 eV 
 
                                              current damping :  0.200
 ITERATION  ENERGY          1e-ENERGY        2e-ENERGY     RMS[dD(SAO)]   TOL
  15  -603.32906476468    -2205.5815681     905.84467610    0.615D-06 0.169D-11
          Norm of current diis error: 0.35265E-04
          max. resid. norm for Fia-block=  5.766D-06 for orbital     43a         
          max. resid. fock norm         =  1.895D-05 for orbital    223a         
 mo-orthogonalization: Cholesky decomposition
          Delta Eig. =     0.0001427220 eV 

 ENERGY & DENSITY CONVERGED !

 
                                              current damping :  0.100
 ITERATION  ENERGY          1e-ENERGY        2e-ENERGY     RMS[dD(SAO)]   TOL
  16  -603.32906476420    -2205.5815671     905.84467511    0.456D-06 0.164D-11
          max. resid. norm for Fia-block=  9.058D-07 for orbital     43a         
          max. resid. fock norm         =  1.043D-05 for orbital    223a         

 convergence criteria satisfied after 16 iterations


   *************************************************************************
   ADC(2) - opt by CAM-B3LYP gaussian                                       
   *************************************************************************


                  ------------------------------------------ 
                 |  total energy      =   -603.32906476420  |
                  ------------------------------------------ 
                 :  kinetic energy    =    602.74413617111  :
                 :  potential energy  =  -1206.07320093531  :
                 :  virial theorem    =      1.99903049824  :
                 :  wavefunction norm =      1.00000000000  :
                  .......................................... 


 <geterg> : there is no data group $energy 


 <skperg> : $end is missing 


 orbitals $scfmo  will be written to file mos

    irrep                 40a         41a         42a         43a         44a   
 eigenvalues H         -0.47992    -0.47865    -0.44528    -0.35650    -0.31190
            eV         -13.0593    -13.0248    -12.1168     -9.7010     -8.4872
 occupation              2.0000      2.0000      2.0000      2.0000      2.0000 

    irrep                 45a         46a         47a         48a         49a   
 eigenvalues H          0.05371     0.05492     0.06693     0.07623     0.09235
            eV           1.4615      1.4944      1.8213      2.0743      2.5131
 
 
 
 
 ==============================================================================
                           electrostatic moments
 ==============================================================================
 
              nuc           elec       ->  total
 ------------------------------------------------------------------------------
                          charge      
 ------------------------------------------------------------------------------
          88.000000     -88.000000      -0.000000
 
 ------------------------------------------------------------------------------
                       dipole moment  
 ------------------------------------------------------------------------------
   x      87.685437     -90.195475      -2.510037
   y      -5.386945       4.950850      -0.436095
   z      -2.404989       2.645601       0.240612
 
   | dipole moment | =     2.5590 a.u. =     6.5043 debye 
 
 ------------------------------------------------------------------------------
                     quadrupole moment
 ------------------------------------------------------------------------------
  xx    1486.156965   -1550.620933     -64.463968
  yy     646.169994    -689.516145     -43.346151
  zz       5.995705     -59.524549     -53.528844
  xy      -5.367689       2.737881      -2.629807
  xz      -2.396392       1.033054      -1.363338
  yz       0.147222      -1.091160      -0.943938
 
     1/3  trace=     -53.779654
     anisotropy=      19.068560
 
 ==============================================================================
 


    ------------------------------------------------------------------------
         total  cpu-time : 36 minutes and 20 seconds
         total wall-time : 36 minutes and 26 seconds
    ------------------------------------------------------------------------


   ****  dscf : all done  ****


    2023-01-23 21:09:31.561 

