 Entering Gaussian System, Link 0=g09
 Initial command:
 /apps/software//g09/l1.exe /scratch/matheusmaximo/65015.cluster.abaxnet/Gau-28872.inp -scrdir=/scratch/matheusmaximo/65015.cluster.abaxnet/
 Entering Link 1 = /apps/software//g09/l1.exe PID=     28873.
  
 Copyright (c) 1988,1990,1992,1993,1995,1998,2003,2009, Gaussian, Inc.
                  All Rights Reserved.
  
 This is part of the Gaussian(R) 09 program.  It is based on
 the Gaussian(R) 03 system (copyright 2003, Gaussian, Inc.),
 the Gaussian(R) 98 system (copyright 1998, Gaussian, Inc.),
 the Gaussian(R) 94 system (copyright 1995, Gaussian, Inc.),
 the Gaussian 92(TM) system (copyright 1992, Gaussian, Inc.),
 the Gaussian 90(TM) system (copyright 1990, Gaussian, Inc.),
 the Gaussian 88(TM) system (copyright 1988, Gaussian, Inc.),
 the Gaussian 86(TM) system (copyright 1986, Carnegie Mellon
 University), and the Gaussian 82(TM) system (copyright 1983,
 Carnegie Mellon University). Gaussian is a federally registered
 trademark of Gaussian, Inc.
  
 This software contains proprietary and confidential information,
 including trade secrets, belonging to Gaussian, Inc.
  
 This software is provided under written license and may be
 used, copied, transmitted, or stored only in accord with that
 written license.
  
 The following legend is applicable only to US Government
 contracts under FAR:
  
                    RESTRICTED RIGHTS LEGEND
  
 Use, reproduction and disclosure by the US Government is
 subject to restrictions as set forth in subparagraphs (a)
 and (c) of the Commercial Computer Software - Restricted
 Rights clause in FAR 52.227-19.
  
 Gaussian, Inc.
 340 Quinnipiac St., Bldg. 40, Wallingford CT 06492
  
  
 ---------------------------------------------------------------
 Warning -- This program may not be used in any manner that
 competes with the business of Gaussian, Inc. or will provide
 assistance to any competitor of Gaussian, Inc.  The licensee
 of this program is prohibited from giving any competitor of
 Gaussian, Inc. access to this program.  By using this program,
 the user acknowledges that Gaussian, Inc. is engaged in the
 business of creating and licensing software in the field of
 computational chemistry and represents and warrants to the
 licensee that it is not a competitor of Gaussian, Inc. and that
 it will not use this program in any manner prohibited above.
 ---------------------------------------------------------------
  

 Cite this work as:
 Gaussian 09, Revision A.02,
 M. J. Frisch, G. W. Trucks, H. B. Schlegel, G. E. Scuseria, 
 M. A. Robb, J. R. Cheeseman, G. Scalmani, V. Barone, B. Mennucci, 
 G. A. Petersson, H. Nakatsuji, M. Caricato, X. Li, H. P. Hratchian, 
 A. F. Izmaylov, J. Bloino, G. Zheng, J. L. Sonnenberg, M. Hada, 
 M. Ehara, K. Toyota, R. Fukuda, J. Hasegawa, M. Ishida, T. Nakajima, 
 Y. Honda, O. Kitao, H. Nakai, T. Vreven, J. A. Montgomery, Jr., 
 J. E. Peralta, F. Ogliaro, M. Bearpark, J. J. Heyd, E. Brothers, 
 K. N. Kudin, V. N. Staroverov, R. Kobayashi, J. Normand, 
 K. Raghavachari, A. Rendell, J. C. Burant, S. S. Iyengar, J. Tomasi, 
 M. Cossi, N. Rega, J. M. Millam, M. Klene, J. E. Knox, J. B. Cross, 
 V. Bakken, C. Adamo, J. Jaramillo, R. Gomperts, R. E. Stratmann, 
 O. Yazyev, A. J. Austin, R. Cammi, C. Pomelli, J. W. Ochterski, 
 R. L. Martin, K. Morokuma, V. G. Zakrzewski, G. A. Voth, 
 P. Salvador, J. J. Dannenberg, S. Dapprich, A. D. Daniels, 
 O. Farkas, J. B. Foresman, J. V. Ortiz, J. Cioslowski, 
 and D. J. Fox, Gaussian, Inc., Wallingford CT, 2009.
 
 ******************************************
 Gaussian 09:  EM64L-G09RevA.02 11-Jun-2009
                 7-Feb-2023 
 ******************************************
 %chk=/home/matheusmaximo/Gaussian/substituent/cooh/cooh_s0.chk
 ---------------------------------------------------
 # opt=tight freq cam-b3lyp/gen scf=qc int=ultrafine
 ---------------------------------------------------
 1/7=10,14=-1,18=20,19=15,26=3,38=1/1,3;
 2/9=110,12=2,17=6,18=5,40=1/2;
 3/5=7,11=2,16=1,25=1,30=1,71=1,74=-40,75=-5/1,2,3;
 4//1;
 5/5=2,8=3,38=5/8;
 6/7=2,8=2,9=2,10=2,28=1/1;
 7//1,2,3,16;
 1/7=10,14=-1,18=20,19=15/3(2);
 2/9=110/2;
 99//99;
 2/9=110/2;
 3/5=7,6=1,11=2,16=1,25=1,30=1,71=1,74=-40,75=-5,82=7/1,2,3;
 4/5=5,16=3/1;
 5/5=2,8=3,38=5/8;
 7//1,2,3,16;
 1/7=10,14=-1,18=20,19=15/3(-5);
 2/9=110/2;
 6/7=2,8=2,9=2,10=2,19=2,28=1/1;
 99/9=1/99;
 ----------------------------
 NA+COOH CAM-B3LYP def2-TZVPD
 ----------------------------
 Symbolic Z-matrix:
 Charge =  0 Multiplicity = 1
 C                    -0.27254  -0.24109   0. 
 C                    -0.47006   0.41584  -1.20829 
 C                    -0.50817  -0.2645   -2.41432 
 C                    -0.34624  -1.64235  -2.40153 
 C                    -0.14736  -2.34282  -1.2115 
 C                    -0.11161  -1.61449  -0.01067 
 H                    -0.24317   0.32521   0.92343 
 H                    -0.66227   0.27859  -3.3362 
 H                    -0.37968  -2.19476  -3.33472 
 N                    -0.63739   1.86299  -1.19377 
 O                    -0.80562   2.43116  -2.27094 
 O                    -0.60004   2.4319   -0.10292 
 N                    -0.04317  -3.71679  -1.16509 
 H                     0.26745  -4.16973  -2.01151 
 H                     0.36263  -4.09426  -0.32048 
 C                    -0.66759  -2.34947   1.22314 
 O                    -0.76598  -1.9745    2.39073 
 O                    -1.10352  -3.59939   0.92467 
 H                    -1.44829  -4.03983   1.71859 
 

 GradGradGradGradGradGradGradGradGradGradGradGradGradGradGradGradGradGrad
 Berny optimization.
 Initialization pass.
                           ----------------------------
                           !    Initial Parameters    !
                           ! (Angstroms and Degrees)  !
 --------------------------                            --------------------------
 ! Name  Definition              Value          Derivative Info.                !
 --------------------------------------------------------------------------------
 ! R1    R(1,2)                  1.3894         estimate D2E/DX2                !
 ! R2    R(1,6)                  1.3828         estimate D2E/DX2                !
 ! R3    R(1,7)                  1.0836         estimate D2E/DX2                !
 ! R4    R(2,3)                  1.3852         estimate D2E/DX2                !
 ! R5    R(2,10)                 1.4569         estimate D2E/DX2                !
 ! R6    R(3,4)                  1.3874         estimate D2E/DX2                !
 ! R7    R(3,8)                  1.081          estimate D2E/DX2                !
 ! R8    R(4,5)                  1.3951         estimate D2E/DX2                !
 ! R9    R(4,9)                  1.085          estimate D2E/DX2                !
 ! R10   R(5,6)                  1.4049         estimate D2E/DX2                !
 ! R11   R(5,13)                 1.3787         estimate D2E/DX2                !
 ! R12   R(6,16)                 1.54           estimate D2E/DX2                !
 ! R13   R(10,11)                1.2294         estimate D2E/DX2                !
 ! R14   R(10,12)                1.2309         estimate D2E/DX2                !
 ! R15   R(13,14)                1.009          estimate D2E/DX2                !
 ! R16   R(13,15)                1.0102         estimate D2E/DX2                !
 ! R17   R(16,17)                1.2303         estimate D2E/DX2                !
 ! R18   R(16,18)                1.357          estimate D2E/DX2                !
 ! R19   R(18,19)                0.9712         estimate D2E/DX2                !
 ! A1    A(2,1,6)              118.6469         estimate D2E/DX2                !
 ! A2    A(2,1,7)              119.8563         estimate D2E/DX2                !
 ! A3    A(6,1,7)              121.4963         estimate D2E/DX2                !
 ! A4    A(1,2,3)              121.9265         estimate D2E/DX2                !
 ! A5    A(1,2,10)             118.5099         estimate D2E/DX2                !
 ! A6    A(3,2,10)             119.5634         estimate D2E/DX2                !
 ! A7    A(2,3,4)              118.4589         estimate D2E/DX2                !
 ! A8    A(2,3,8)              119.9777         estimate D2E/DX2                !
 ! A9    A(4,3,8)              121.5634         estimate D2E/DX2                !
 ! A10   A(3,4,5)              121.5425         estimate D2E/DX2                !
 ! A11   A(3,4,9)              119.6123         estimate D2E/DX2                !
 ! A12   A(5,4,9)              118.8442         estimate D2E/DX2                !
 ! A13   A(4,5,6)              118.1919         estimate D2E/DX2                !
 ! A14   A(4,5,13)             122.6733         estimate D2E/DX2                !
 ! A15   A(6,5,13)             119.0747         estimate D2E/DX2                !
 ! A16   A(1,6,5)              121.2329         estimate D2E/DX2                !
 ! A17   A(1,6,16)             115.2018         estimate D2E/DX2                !
 ! A18   A(5,6,16)             115.3527         estimate D2E/DX2                !
 ! A19   A(2,10,11)            117.7786         estimate D2E/DX2                !
 ! A20   A(2,10,12)            117.6761         estimate D2E/DX2                !
 ! A21   A(11,10,12)           124.5453         estimate D2E/DX2                !
 ! A22   A(5,13,14)            116.2565         estimate D2E/DX2                !
 ! A23   A(5,13,15)            115.5231         estimate D2E/DX2                !
 ! A24   A(14,13,15)           114.2026         estimate D2E/DX2                !
 ! A25   A(6,16,17)            130.0733         estimate D2E/DX2                !
 ! A26   A(6,16,18)            112.2947         estimate D2E/DX2                !
 ! A27   A(17,16,18)           117.632          estimate D2E/DX2                !
 ! A28   A(16,18,19)           110.6079         estimate D2E/DX2                !
 ! D1    D(6,1,2,3)             -0.0702         estimate D2E/DX2                !
 ! D2    D(6,1,2,10)          -179.9152         estimate D2E/DX2                !
 ! D3    D(7,1,2,3)            179.6631         estimate D2E/DX2                !
 ! D4    D(7,1,2,10)            -0.182          estimate D2E/DX2                !
 ! D5    D(2,1,6,5)             -0.1112         estimate D2E/DX2                !
 ! D6    D(2,1,6,16)          -147.1274         estimate D2E/DX2                !
 ! D7    D(7,1,6,5)           -179.8399         estimate D2E/DX2                !
 ! D8    D(7,1,6,16)            33.1439         estimate D2E/DX2                !
 ! D9    D(1,2,3,4)              0.1555         estimate D2E/DX2                !
 ! D10   D(1,2,3,8)           -179.9041         estimate D2E/DX2                !
 ! D11   D(10,2,3,4)           179.999          estimate D2E/DX2                !
 ! D12   D(10,2,3,8)            -0.0607         estimate D2E/DX2                !
 ! D13   D(1,2,10,11)          179.6971         estimate D2E/DX2                !
 ! D14   D(1,2,10,12)           -0.283          estimate D2E/DX2                !
 ! D15   D(3,2,10,11)           -0.1517         estimate D2E/DX2                !
 ! D16   D(3,2,10,12)          179.8681         estimate D2E/DX2                !
 ! D17   D(2,3,4,5)             -0.0619         estimate D2E/DX2                !
 ! D18   D(2,3,4,9)            179.5807         estimate D2E/DX2                !
 ! D19   D(8,3,4,5)            179.9988         estimate D2E/DX2                !
 ! D20   D(8,3,4,9)             -0.3586         estimate D2E/DX2                !
 ! D21   D(3,4,5,6)             -0.1106         estimate D2E/DX2                !
 ! D22   D(3,4,5,13)           177.0412         estimate D2E/DX2                !
 ! D23   D(9,4,5,6)           -179.7559         estimate D2E/DX2                !
 ! D24   D(9,4,5,13)            -2.6041         estimate D2E/DX2                !
 ! D25   D(4,5,6,1)              0.199          estimate D2E/DX2                !
 ! D26   D(4,5,6,16)           147.1689         estimate D2E/DX2                !
 ! D27   D(13,5,6,1)          -177.0579         estimate D2E/DX2                !
 ! D28   D(13,5,6,16)          -30.088          estimate D2E/DX2                !
 ! D29   D(4,5,13,14)           24.8338         estimate D2E/DX2                !
 ! D30   D(4,5,13,15)          162.7439         estimate D2E/DX2                !
 ! D31   D(6,5,13,14)         -158.0385         estimate D2E/DX2                !
 ! D32   D(6,5,13,15)          -20.1284         estimate D2E/DX2                !
 ! D33   D(1,6,16,17)          -31.0049         estimate D2E/DX2                !
 ! D34   D(1,6,16,18)          148.9982         estimate D2E/DX2                !
 ! D35   D(5,6,16,17)          180.0            estimate D2E/DX2                !
 ! D36   D(5,6,16,18)            0.0031         estimate D2E/DX2                !
 ! D37   D(6,16,18,19)         179.9996         estimate D2E/DX2                !
 ! D38   D(17,16,18,19)          0.0023         estimate D2E/DX2                !
 --------------------------------------------------------------------------------
 Trust Radius=3.00D-01 FncErr=1.00D-07 GrdErr=1.00D-06
 Number of steps in this run=  95 maximum allowed number of steps= 114.
 GradGradGradGradGradGradGradGradGradGradGradGradGradGradGradGradGradGrad

                          Input orientation:                          
 ---------------------------------------------------------------------
 Center     Atomic      Atomic             Coordinates (Angstroms)
 Number     Number       Type             X           Y           Z
 ---------------------------------------------------------------------
      1          6           0       -0.272537   -0.241090    0.000000
      2          6           0       -0.470057    0.415840   -1.208290
      3          6           0       -0.508167   -0.264500   -2.414320
      4          6           0       -0.346237   -1.642350   -2.401530
      5          6           0       -0.147357   -2.342820   -1.211500
      6          6           0       -0.111607   -1.614490   -0.010670
      7          1           0       -0.243167    0.325210    0.923430
      8          1           0       -0.662267    0.278590   -3.336200
      9          1           0       -0.379677   -2.194760   -3.334720
     10          7           0       -0.637387    1.862990   -1.193770
     11          8           0       -0.805617    2.431160   -2.270940
     12          8           0       -0.600037    2.431900   -0.102920
     13          7           0       -0.043167   -3.716790   -1.165090
     14          1           0        0.267453   -4.169730   -2.011510
     15          1           0        0.362633   -4.094260   -0.320480
     16          6           0       -0.667592   -2.349475    1.223136
     17          8           0       -0.765976   -1.974504    2.390732
     18          8           0       -1.103521   -3.599393    0.924672
     19          1           0       -1.448288   -4.039830    1.718593
 ---------------------------------------------------------------------
                    Distance matrix (angstroms):
                    1          2          3          4          5
     1  C    0.000000
     2  C    1.389437   0.000000
     3  C    2.425904   1.385216   0.000000
     4  C    2.781422   2.382289   1.387392   0.000000
     5  C    2.429130   2.777472   2.428245   1.395128   0.000000
     6  C    1.382838   2.384328   2.785187   2.402507   1.404897
     7  H    1.083643   2.145675   3.399788   3.864877   3.418405
     8  H    3.398851   2.140977   1.080998   2.159512   3.413396
     9  H    3.866350   3.368250   2.142323   1.084951   2.141018
    10  N    2.446499   1.456864   2.456146   3.718987   4.234298
    11  O    3.547149   2.302898   2.715809   4.101410   4.934228
    12  O    2.694944   2.302875   3.552687   4.684820   4.922583
    13  N    3.672946   4.154844   3.700690   2.433914   1.378696
    14  H    4.446569   4.713442   4.001833   2.629901   2.037077
    15  H    3.918299   4.671465   4.450789   3.293194   2.030160
    16  C    2.469295   3.687522   4.195667   3.706953   2.489607
    17  O    2.993962   4.330620   5.106770   4.822062   3.673475
    18  O    3.581026   4.590522   4.756556   3.932825   2.656399
    19  H    4.332018   5.420016   5.676083   4.892632   3.627356
                    6          7          8          9         10
     6  C    0.000000
     7  H    2.156916   0.000000
     8  H    3.866022   4.280452   0.000000
     9  H    3.384950   4.949821   2.489442   0.000000
    10  N    3.710665   2.646264   2.664761   4.595151   0.000000
    11  O    4.685910   3.867218   2.406010   4.765731   1.229396
    12  O    4.076806   2.370420   3.885192   5.647926   1.230856
    13  N    2.399382   4.554084   4.589125   2.671537   5.611405
    14  H    3.267461   5.392503   4.733575   2.463771   6.154766
    15  H    2.543648   4.630985   5.409880   3.639336   6.103401
    16  C    1.540000   2.724683   5.262537   4.569561   4.856666
    17  O    2.514864   2.777587   6.155074   5.742695   5.252766
    18  O    2.408027   4.017800   5.778277   4.543057   5.877304
    19  H    3.264865   4.597627   6.694589   5.484723   6.631946
                   11         12         13         14         15
    11  O    0.000000
    12  O    2.177745   0.000000
    13  N    6.292974   6.264559   0.000000
    14  H    6.692573   6.926527   1.008993   0.000000
    15  H    6.910153   6.600366   1.010210   1.695387   0.000000
    16  C    5.923013   4.962311   2.821894   3.827607   2.547232
    17  O    6.414252   5.065791   4.025156   5.026602   3.621850
    18  O    6.831416   6.138887   2.346324   3.290292   1.986179
    19  H    7.629096   6.776484   3.224027   4.107836   2.727677
                   16         17         18         19
    16  C    0.000000
    17  O    1.230269   0.000000
    18  O    1.356986   2.214392   0.000000
    19  H    1.926724   2.276596   0.971165   0.000000
 Stoichiometry    C7H6N2O4
 Framework group  C1[X(C7H6N2O4)]
 Deg. of freedom    51
 Full point group                 C1      NOp   1
 Largest Abelian subgroup         C1      NOp   1
 Largest concise Abelian subgroup C1      NOp   1
                         Standard orientation:                         
 ---------------------------------------------------------------------
 Center     Atomic      Atomic             Coordinates (Angstroms)
 Number     Number       Type             X           Y           Z
 ---------------------------------------------------------------------
      1          6           0        0.369778   -0.702064   -0.332364
      2          6           0        1.428534    0.149332   -0.041340
      3          6           0        1.241890    1.506266    0.165341
      4          6           0       -0.045139    2.017207    0.079600
      5          6           0       -1.137633    1.198728   -0.208376
      6          6           0       -0.904445   -0.171215   -0.414808
      7          1           0        0.554856   -1.757583   -0.493319
      8          1           0        2.088637    2.140146    0.388435
      9          1           0       -0.213660    3.076169    0.244885
     10          7           0        2.769946   -0.412776    0.042950
     11          8           0        3.697482    0.353563    0.295565
     12          8           0        2.895561   -1.622807   -0.144275
     13          7           0       -2.432805    1.670205   -0.240679
     14          1           0       -2.544857    2.654569   -0.431831
     15          1           0       -3.100001    1.077761   -0.714369
     16          6           0       -2.036525   -1.109226    0.043591
     17          8           0       -2.117914   -2.335777   -0.006512
     18          8           0       -3.082927   -0.430355    0.577994
     19          1           0       -3.781332   -1.044229    0.858263
 ---------------------------------------------------------------------
 Rotational constants (GHZ):      1.5268998      0.5399664      0.4080292
 General basis read from cards:  (5D, 7F)
 There are   547 symmetry adapted basis functions of A   symmetry.
 Integral buffers will be    131072 words long.
 Raffenetti 2 integral format.
 Two-electron integral symmetry is turned on.
   547 basis functions,   832 primitive gaussians,   625 cartesian basis functions
    47 alpha electrons       47 beta electrons
       nuclear repulsion energy       773.1520810426 Hartrees.
 NAtoms=   19 NActive=   19 NUniq=   19 SFac= 7.50D-01 NAtFMM=   80 NAOKFM=F Big=F
 One-electron integrals computed using PRISM.
 NBasis=   547 RedAO= T  NBF=   547
 NBsUse=   545 1.00D-06 NBFU=   545
 Harris functional with IExCor=20419 diagonalized for initial guess.
 ExpMin= 4.85D-02 ExpMax= 2.70D+04 ExpMxC= 9.22D+02 IAcc=3 IRadAn=         5 AccDes= 0.00D+00
 HarFok:  IExCor=20419 AccDes= 0.00D+00 IRadAn=         5 IDoV= 1
 ScaDFX=  1.000000  1.000000  1.000000  1.000000
 FoFCou: FMM=F IPFlag=           0 FMFlag=      100000 FMFlg1=           0
         NFxFlg=           0 DoJE=T BraDBF=F KetDBF=T FulRan=T
         Omega=  0.000000  0.000000  1.000000  0.000000  0.000000 ICntrl=     500 IOpCl=  0
         NMat0=    1 NMatS0=    1 NMatT0=    0 NMatD0=    1 NMtDS0=    0 NMtDT0=    0
         I1Cent=           4 NGrid=           0.
 Petite list used in FoFCou.
 Initial guess orbital symmetries:
       Occupied  (A) (A) (A) (A) (A) (A) (A) (A) (A) (A) (A) (A)
                 (A) (A) (A) (A) (A) (A) (A) (A) (A) (A) (A) (A)
                 (A) (A) (A) (A) (A) (A) (A) (A) (A) (A) (A) (A)
                 (A) (A) (A) (A) (A) (A) (A) (A) (A) (A) (A)
       Virtual   (A) (A) (A) (A) (A) (A) (A) (A) (A) (A) (A) (A)
                 (A) (A) (A) (A) (A) (A) (A) (A) (A) (A) (A) (A)
                 (A) (A) (A) (A) (A) (A) (A) (A) (A) (A) (A) (A)
                 (A) (A) (A) (A) (A) (A) (A) (A) (A) (A) (A) (A)
                 (A) (A) (A) (A) (A) (A) (A) (A) (A) (A) (A) (A)
                 (A) (A) (A) (A) (A) (A) (A) (A) (A) (A) (A) (A)
                 (A) (A) (A) (A) (A) (A) (A) (A) (A) (A) (A) (A)
                 (A) (A) (A) (A) (A) (A) (A) (A) (A) (A) (A) (A)
                 (A) (A) (A) (A) (A) (A) (A) (A) (A) (A) (A) (A)
                 (A) (A) (A) (A) (A) (A) (A) (A) (A) (A) (A) (A)
                 (A) (A) (A) (A) (A) (A) (A) (A) (A) (A) (A) (A)
                 (A) (A) (A) (A) (A) (A) (A) (A) (A) (A) (A) (A)
                 (A) (A) (A) (A) (A) (A) (A) (A) (A) (A) (A) (A)
                 (A) (A) (A) (A) (A) (A) (A) (A) (A) (A) (A) (A)
                 (A) (A) (A) (A) (A) (A) (A) (A) (A) (A) (A) (A)
                 (A) (A) (A) (A) (A) (A) (A) (A) (A) (A) (A) (A)
                 (A) (A) (A) (A) (A) (A) (A) (A) (A) (A) (A) (A)
                 (A) (A) (A) (A) (A) (A) (A) (A) (A) (A) (A) (A)
                 (A) (A) (A) (A) (A) (A) (A) (A) (A) (A) (A) (A)
                 (A) (A) (A) (A) (A) (A) (A) (A) (A) (A) (A) (A)
                 (A) (A) (A) (A) (A) (A) (A) (A) (A) (A) (A) (A)
                 (A) (A) (A) (A) (A) (A) (A) (A) (A) (A) (A) (A)
                 (A) (A) (A) (A) (A) (A) (A) (A) (A) (A) (A) (A)
                 (A) (A) (A) (A) (A) (A) (A) (A) (A) (A) (A) (A)
                 (A) (A) (A) (A) (A) (A) (A) (A) (A) (A) (A) (A)
                 (A) (A) (A) (A) (A) (A) (A) (A) (A) (A) (A) (A)
                 (A) (A) (A) (A) (A) (A) (A) (A) (A) (A) (A) (A)
                 (A) (A) (A) (A) (A) (A) (A) (A) (A) (A) (A) (A)
                 (A) (A) (A) (A) (A) (A) (A) (A) (A) (A) (A) (A)
                 (A) (A) (A) (A) (A) (A) (A) (A) (A) (A) (A) (A)
                 (A) (A) (A) (A) (A) (A) (A) (A) (A) (A) (A) (A)
                 (A) (A) (A) (A) (A) (A) (A) (A) (A) (A) (A) (A)
                 (A) (A) (A) (A) (A) (A) (A) (A) (A) (A) (A) (A)
                 (A) (A) (A) (A) (A) (A) (A) (A) (A) (A) (A) (A)
                 (A) (A) (A) (A) (A) (A) (A) (A) (A) (A) (A) (A)
                 (A) (A) (A) (A) (A) (A) (A) (A) (A) (A) (A) (A)
                 (A) (A) (A) (A) (A) (A) (A) (A) (A) (A) (A) (A)
                 (A) (A) (A) (A) (A) (A) (A) (A) (A) (A) (A) (A)
                 (A) (A) (A) (A) (A) (A) (A) (A) (A) (A) (A) (A)
                 (A) (A) (A) (A) (A) (A) (A) (A) (A) (A) (A) (A)
                 (A) (A) (A) (A) (A) (A) (A) (A) (A) (A) (A) (A)
                 (A) (A) (A) (A) (A) (A)
 The electronic state of the initial guess is 1-A.
 FoFJK:  IHMeth= 1 ICntrl=     0 DoSepK=T KAlg= 1 I1Cent= 0 FoldK=F
 Gradient too large for Newton-Raphson -- use scaled steepest descent instead.
 FoFJK:  IHMeth= 1 ICntrl=     0 DoSepK=T KAlg= 1 I1Cent= 0 FoldK=F
 FoFJK:  IHMeth= 1 ICntrl=     0 DoSepK=T KAlg= 1 I1Cent= 0 FoldK=F
 FoFJK:  IHMeth= 1 ICntrl=     0 DoSepK=T KAlg= 1 I1Cent= 0 FoldK=F
 FoFJK:  IHMeth= 1 ICntrl=     0 DoSepK=T KAlg= 1 I1Cent= 0 FoldK=F
 Gradient too large for Newton-Raphson -- use scaled steepest descent instead.
 FoFJK:  IHMeth= 1 ICntrl=     0 DoSepK=T KAlg= 1 I1Cent= 0 FoldK=F
 FoFJK:  IHMeth= 1 ICntrl=     0 DoSepK=T KAlg= 1 I1Cent= 0 FoldK=F
 FoFJK:  IHMeth= 1 ICntrl=     0 DoSepK=T KAlg= 1 I1Cent= 0 FoldK=F
 FoFJK:  IHMeth= 1 ICntrl=     0 DoSepK=T KAlg= 1 I1Cent= 0 FoldK=F
 Gradient too large for Newton-Raphson -- use scaled steepest descent instead.
 FoFJK:  IHMeth= 1 ICntrl=     0 DoSepK=T KAlg= 1 I1Cent= 0 FoldK=F
 FoFJK:  IHMeth= 1 ICntrl=     0 DoSepK=T KAlg= 1 I1Cent= 0 FoldK=F
 FoFJK:  IHMeth= 1 ICntrl=     0 DoSepK=T KAlg= 1 I1Cent= 0 FoldK=F
 Gradient too large for Newton-Raphson -- use scaled steepest descent instead.
 FoFJK:  IHMeth= 1 ICntrl=     0 DoSepK=T KAlg= 1 I1Cent= 0 FoldK=F
 FoFJK:  IHMeth= 1 ICntrl=     0 DoSepK=T KAlg= 1 I1Cent= 0 FoldK=F
 FoFJK:  IHMeth= 1 ICntrl=     0 DoSepK=T KAlg= 1 I1Cent= 0 FoldK=F
 FoFJK:  IHMeth= 1 ICntrl=     0 DoSepK=T KAlg= 1 I1Cent= 0 FoldK=F
 Gradient too large for Newton-Raphson -- use scaled steepest descent instead.
 FoFJK:  IHMeth= 1 ICntrl=     0 DoSepK=T KAlg= 1 I1Cent= 0 FoldK=F
 FoFJK:  IHMeth= 1 ICntrl=     0 DoSepK=T KAlg= 1 I1Cent= 0 FoldK=F
 FoFJK:  IHMeth= 1 ICntrl=     0 DoSepK=T KAlg= 1 I1Cent= 0 FoldK=F
 Gradient too large for Newton-Raphson -- use scaled steepest descent instead.
 FoFJK:  IHMeth= 1 ICntrl=     0 DoSepK=T KAlg= 1 I1Cent= 0 FoldK=F
 FoFJK:  IHMeth= 1 ICntrl=     0 DoSepK=T KAlg= 1 I1Cent= 0 FoldK=F
 FoFJK:  IHMeth= 1 ICntrl=     0 DoSepK=T KAlg= 1 I1Cent= 0 FoldK=F
 FoFJK:  IHMeth= 1 ICntrl=     0 DoSepK=T KAlg= 1 I1Cent= 0 FoldK=F
 LinEq1:  Iter=  0 NonCon=     1 RMS=4.60D-05 Max=3.02D-03
 AX will form     1 AO Fock derivatives at one time.
 FoFJK:  IHMeth= 1 ICntrl=     0 DoSepK=T KAlg= 1 I1Cent= 0 FoldK=F
 LinEq1:  Iter=  1 NonCon=     1 RMS=4.63D-05 Max=3.60D-03
 FoFJK:  IHMeth= 1 ICntrl=     0 DoSepK=T KAlg= 1 I1Cent= 0 FoldK=F
 LinEq1:  Iter=  2 NonCon=     1 RMS=1.53D-05 Max=1.33D-03
 FoFJK:  IHMeth= 1 ICntrl=     0 DoSepK=T KAlg= 1 I1Cent= 0 FoldK=F
 LinEq1:  Iter=  3 NonCon=     1 RMS=9.84D-06 Max=4.02D-04
 FoFJK:  IHMeth= 1 ICntrl=     0 DoSepK=T KAlg= 1 I1Cent= 0 FoldK=F
 LinEq1:  Iter=  4 NonCon=     1 RMS=2.55D-06 Max=1.25D-04
 FoFJK:  IHMeth= 1 ICntrl=     0 DoSepK=T KAlg= 1 I1Cent= 0 FoldK=F
 LinEq1:  Iter=  5 NonCon=     1 RMS=2.04D-06 Max=9.66D-05
 FoFJK:  IHMeth= 1 ICntrl=     0 DoSepK=T KAlg= 1 I1Cent= 0 FoldK=F
 LinEq1:  Iter=  6 NonCon=     1 RMS=5.89D-07 Max=3.00D-05
 FoFJK:  IHMeth= 1 ICntrl=     0 DoSepK=T KAlg= 1 I1Cent= 0 FoldK=F
 LinEq1:  Iter=  7 NonCon=     1 RMS=3.90D-07 Max=1.38D-05
 FoFJK:  IHMeth= 1 ICntrl=     0 DoSepK=T KAlg= 1 I1Cent= 0 FoldK=F
 LinEq1:  Iter=  8 NonCon=     1 RMS=1.03D-07 Max=4.97D-06
 FoFJK:  IHMeth= 1 ICntrl=     0 DoSepK=T KAlg= 1 I1Cent= 0 FoldK=F
 LinEq1:  Iter=  9 NonCon=     1 RMS=5.48D-08 Max=2.62D-06
 FoFJK:  IHMeth= 1 ICntrl=     0 DoSepK=T KAlg= 1 I1Cent= 0 FoldK=F
 LinEq1:  Iter= 10 NonCon=     1 RMS=2.60D-08 Max=1.48D-06
 FoFJK:  IHMeth= 1 ICntrl=     0 DoSepK=T KAlg= 1 I1Cent= 0 FoldK=F
 LinEq1:  Iter= 11 NonCon=     1 RMS=1.41D-08 Max=6.78D-07
 FoFJK:  IHMeth= 1 ICntrl=     0 DoSepK=T KAlg= 1 I1Cent= 0 FoldK=F
 LinEq1:  Iter= 12 NonCon=     0 RMS=4.01D-09 Max=1.48D-07
 Linear equations converged to 2.164D-08 2.164D-07 after    12 iterations.
 FoFJK:  IHMeth= 1 ICntrl=     0 DoSepK=T KAlg= 1 I1Cent= 0 FoldK=F
 FoFJK:  IHMeth= 1 ICntrl=     0 DoSepK=T KAlg= 1 I1Cent= 0 FoldK=F
 FoFJK:  IHMeth= 1 ICntrl=     0 DoSepK=T KAlg= 1 I1Cent= 0 FoldK=F
 LinEq1:  Iter=  0 NonCon=     1 RMS=1.94D-07 Max=1.28D-05
 FoFJK:  IHMeth= 1 ICntrl=     0 DoSepK=T KAlg= 1 I1Cent= 0 FoldK=F
 LinEq1:  Iter=  1 NonCon=     1 RMS=8.61D-08 Max=3.05D-06
 FoFJK:  IHMeth= 1 ICntrl=     0 DoSepK=T KAlg= 1 I1Cent= 0 FoldK=F
 LinEq1:  Iter=  2 NonCon=     1 RMS=5.90D-08 Max=4.65D-06
 FoFJK:  IHMeth= 1 ICntrl=     0 DoSepK=T KAlg= 1 I1Cent= 0 FoldK=F
 LinEq1:  Iter=  3 NonCon=     1 RMS=2.82D-08 Max=6.88D-07
 FoFJK:  IHMeth= 1 ICntrl=     0 DoSepK=T KAlg= 1 I1Cent= 0 FoldK=F
 LinEq1:  Iter=  4 NonCon=     1 RMS=2.38D-08 Max=1.97D-06
 FoFJK:  IHMeth= 1 ICntrl=     0 DoSepK=T KAlg= 1 I1Cent= 0 FoldK=F
 LinEq1:  Iter=  5 NonCon=     1 RMS=1.49D-08 Max=8.60D-07
 FoFJK:  IHMeth= 1 ICntrl=     0 DoSepK=T KAlg= 1 I1Cent= 0 FoldK=F
 LinEq1:  Iter=  6 NonCon=     1 RMS=8.24D-09 Max=5.19D-07
 FoFJK:  IHMeth= 1 ICntrl=     0 DoSepK=T KAlg= 1 I1Cent= 0 FoldK=F
 LinEq1:  Iter=  7 NonCon=     1 RMS=3.03D-09 Max=1.31D-07
 FoFJK:  IHMeth= 1 ICntrl=     0 DoSepK=T KAlg= 1 I1Cent= 0 FoldK=F
 LinEq1:  Iter=  8 NonCon=     1 RMS=1.92D-09 Max=4.42D-08
 FoFJK:  IHMeth= 1 ICntrl=     0 DoSepK=T KAlg= 1 I1Cent= 0 FoldK=F
 LinEq1:  Iter=  9 NonCon=     1 RMS=1.02D-09 Max=4.06D-08
 FoFJK:  IHMeth= 1 ICntrl=     0 DoSepK=T KAlg= 1 I1Cent= 0 FoldK=F
 LinEq1:  Iter= 10 NonCon=     1 RMS=6.25D-10 Max=2.51D-08
 FoFJK:  IHMeth= 1 ICntrl=     0 DoSepK=T KAlg= 1 I1Cent= 0 FoldK=F
 LinEq1:  Iter= 11 NonCon=     1 RMS=3.09D-10 Max=1.38D-08
 FoFJK:  IHMeth= 1 ICntrl=     0 DoSepK=T KAlg= 1 I1Cent= 0 FoldK=F
 LinEq1:  Iter= 12 NonCon=     1 RMS=1.68D-10 Max=6.20D-09
 FoFJK:  IHMeth= 1 ICntrl=     0 DoSepK=T KAlg= 1 I1Cent= 0 FoldK=F
 LinEq1:  Iter= 13 NonCon=     0 RMS=6.46D-11 Max=2.62D-09
 Linear equations converged to 3.180D-10 3.180D-09 after    13 iterations.
 FoFJK:  IHMeth= 1 ICntrl=     0 DoSepK=T KAlg= 1 I1Cent= 0 FoldK=F
 SCF Done:  E(RCAM-B3LYP) =  -680.649930737     a.u. after    9 cycles
            Convg  =    0.2757D-08                    52 Fock formations.
              S**2 =  0.0000                  -V/T =  2.0042

 **********************************************************************

            Population analysis using the SCF density.

 **********************************************************************

 Orbital symmetries:
       Occupied  (A) (A) (A) (A) (A) (A) (A) (A) (A) (A) (A) (A)
                 (A) (A) (A) (A) (A) (A) (A) (A) (A) (A) (A) (A)
                 (A) (A) (A) (A) (A) (A) (A) (A) (A) (A) (A) (A)
                 (A) (A) (A) (A) (A) (A) (A) (A) (A) (A) (A)
       Virtual   (A) (A) (A) (A) (A) (A) (A) (A) (A) (A) (A) (A)
                 (A) (A) (A) (A) (A) (A) (A) (A) (A) (A) (A) (A)
                 (A) (A) (A) (A) (A) (A) (A) (A) (A) (A) (A) (A)
                 (A) (A) (A) (A) (A) (A) (A) (A) (A) (A) (A) (A)
                 (A) (A) (A) (A) (A) (A) (A) (A) (A) (A) (A) (A)
                 (A) (A) (A) (A) (A) (A) (A) (A) (A) (A) (A) (A)
                 (A) (A) (A) (A) (A) (A) (A) (A) (A) (A) (A) (A)
                 (A) (A) (A) (A) (A) (A) (A) (A) (A) (A) (A) (A)
                 (A) (A) (A) (A) (A) (A) (A) (A) (A) (A) (A) (A)
                 (A) (A) (A) (A) (A) (A) (A) (A) (A) (A) (A) (A)
                 (A) (A) (A) (A) (A) (A) (A) (A) (A) (A) (A) (A)
                 (A) (A) (A) (A) (A) (A) (A) (A) (A) (A) (A) (A)
                 (A) (A) (A) (A) (A) (A) (A) (A) (A) (A) (A) (A)
                 (A) (A) (A) (A) (A) (A) (A) (A) (A) (A) (A) (A)
                 (A) (A) (A) (A) (A) (A) (A) (A) (A) (A) (A) (A)
                 (A) (A) (A) (A) (A) (A) (A) (A) (A) (A) (A) (A)
                 (A) (A) (A) (A) (A) (A) (A) (A) (A) (A) (A) (A)
                 (A) (A) (A) (A) (A) (A) (A) (A) (A) (A) (A) (A)
                 (A) (A) (A) (A) (A) (A) (A) (A) (A) (A) (A) (A)
                 (A) (A) (A) (A) (A) (A) (A) (A) (A) (A) (A) (A)
                 (A) (A) (A) (A) (A) (A) (A) (A) (A) (A) (A) (A)
                 (A) (A) (A) (A) (A) (A) (A) (A) (A) (A) (A) (A)
                 (A) (A) (A) (A) (A) (A) (A) (A) (A) (A) (A) (A)
                 (A) (A) (A) (A) (A) (A) (A) (A) (A) (A) (A) (A)
                 (A) (A) (A) (A) (A) (A) (A) (A) (A) (A) (A) (A)
                 (A) (A) (A) (A) (A) (A) (A) (A) (A) (A) (A) (A)
                 (A) (A) (A) (A) (A) (A) (A) (A) (A) (A) (A) (A)
                 (A) (A) (A) (A) (A) (A) (A) (A) (A) (A) (A) (A)
                 (A) (A) (A) (A) (A) (A) (A) (A) (A) (A) (A) (A)
                 (A) (A) (A) (A) (A) (A) (A) (A) (A) (A) (A) (A)
                 (A) (A) (A) (A) (A) (A) (A) (A) (A) (A) (A) (A)
                 (A) (A) (A) (A) (A) (A) (A) (A) (A) (A) (A) (A)
                 (A) (A) (A) (A) (A) (A) (A) (A) (A) (A) (A) (A)
                 (A) (A) (A) (A) (A) (A) (A) (A) (A) (A) (A) (A)
                 (A) (A) (A) (A) (A) (A) (A) (A) (A) (A) (A) (A)
                 (A) (A) (A) (A) (A) (A) (A) (A) (A) (A) (A) (A)
                 (A) (A) (A) (A) (A) (A) (A) (A) (A) (A) (A) (A)
                 (A) (A) (A) (A) (A) (A) (A) (A) (A) (A) (A) (A)
                 (A) (A) (A) (A) (A) (A) (A) (A) (A) (A) (A) (A)
                 (A) (A) (A) (A) (A) (A) (A) (A) (A) (A) (A) (A)
                 (A) (A) (A) (A) (A) (A) (A) (A) (A) (A) (A) (A)
                 (A) (A) (A) (A) (A) (A)
 The electronic state is 1-A.
 Alpha  occ. eigenvalues --  -19.26320 -19.23732 -19.23627 -19.20392 -14.63713
 Alpha  occ. eigenvalues --  -14.42708 -10.41312 -10.34069 -10.31720 -10.29836
 Alpha  occ. eigenvalues --  -10.29831 -10.29673 -10.28350  -1.31536  -1.20937
 Alpha  occ. eigenvalues --   -1.13898  -1.10444  -1.04791  -0.98303  -0.89769
 Alpha  occ. eigenvalues --   -0.88191  -0.78992  -0.77203  -0.71217  -0.68513
 Alpha  occ. eigenvalues --   -0.65016  -0.63889  -0.61805  -0.61753  -0.59079
 Alpha  occ. eigenvalues --   -0.57858  -0.56614  -0.54713  -0.54154  -0.53562
 Alpha  occ. eigenvalues --   -0.50672  -0.49840  -0.48702  -0.45332  -0.41811
 Alpha  occ. eigenvalues --   -0.40717  -0.38821  -0.38359  -0.37110  -0.36420
 Alpha  occ. eigenvalues --   -0.35097  -0.30495
 Alpha virt. eigenvalues --   -0.05434  -0.03552   0.00759   0.02350   0.02871
 Alpha virt. eigenvalues --    0.03916   0.04494   0.06346   0.06534   0.06691
 Alpha virt. eigenvalues --    0.07598   0.08401   0.08743   0.09799   0.10266
 Alpha virt. eigenvalues --    0.10707   0.11486   0.11653   0.12784   0.13276
 Alpha virt. eigenvalues --    0.13958   0.14779   0.15317   0.15696   0.16551
 Alpha virt. eigenvalues --    0.16884   0.17169   0.18122   0.18726   0.19423
 Alpha virt. eigenvalues --    0.20323   0.20476   0.21171   0.21357   0.21847
 Alpha virt. eigenvalues --    0.22573   0.23146   0.23363   0.23989   0.24729
 Alpha virt. eigenvalues --    0.24983   0.25578   0.26040   0.26759   0.27241
 Alpha virt. eigenvalues --    0.27305   0.27738   0.28638   0.28886   0.29083
 Alpha virt. eigenvalues --    0.29255   0.30293   0.30859   0.31279   0.31718
 Alpha virt. eigenvalues --    0.31953   0.32573   0.32838   0.33425   0.33898
 Alpha virt. eigenvalues --    0.34073   0.35022   0.35486   0.36076   0.36747
 Alpha virt. eigenvalues --    0.36878   0.37301   0.37862   0.38511   0.39091
 Alpha virt. eigenvalues --    0.39511   0.40292   0.40446   0.41101   0.41424
 Alpha virt. eigenvalues --    0.42362   0.42476   0.42944   0.43106   0.43758
 Alpha virt. eigenvalues --    0.44261   0.45859   0.46011   0.46759   0.47060
 Alpha virt. eigenvalues --    0.47803   0.48254   0.48806   0.48913   0.49401
 Alpha virt. eigenvalues --    0.49656   0.49962   0.51101   0.51326   0.51953
 Alpha virt. eigenvalues --    0.52827   0.53569   0.54099   0.55192   0.55655
 Alpha virt. eigenvalues --    0.56252   0.56807   0.57332   0.57895   0.58606
 Alpha virt. eigenvalues --    0.58808   0.59026   0.59462   0.60114   0.60611
 Alpha virt. eigenvalues --    0.61479   0.61890   0.62857   0.63713   0.64175
 Alpha virt. eigenvalues --    0.64581   0.65372   0.65664   0.65802   0.66516
 Alpha virt. eigenvalues --    0.66853   0.67227   0.67748   0.68418   0.68831
 Alpha virt. eigenvalues --    0.69203   0.69461   0.69919   0.70759   0.71346
 Alpha virt. eigenvalues --    0.72283   0.72419   0.72908   0.73715   0.73932
 Alpha virt. eigenvalues --    0.74816   0.75604   0.76119   0.76225   0.77325
 Alpha virt. eigenvalues --    0.77792   0.78098   0.78520   0.78871   0.79349
 Alpha virt. eigenvalues --    0.79980   0.80278   0.81387   0.81820   0.82223
 Alpha virt. eigenvalues --    0.82433   0.83298   0.83906   0.85057   0.85994
 Alpha virt. eigenvalues --    0.86285   0.87582   0.88317   0.88931   0.90034
 Alpha virt. eigenvalues --    0.91121   0.91775   0.92863   0.93919   0.94432
 Alpha virt. eigenvalues --    0.95621   0.97511   0.97650   0.98920   1.00701
 Alpha virt. eigenvalues --    1.00843   1.01502   1.02807   1.03504   1.03595
 Alpha virt. eigenvalues --    1.04290   1.04989   1.05464   1.06953   1.07705
 Alpha virt. eigenvalues --    1.09480   1.10518   1.11940   1.12866   1.13598
 Alpha virt. eigenvalues --    1.14846   1.16120   1.17065   1.17546   1.20196
 Alpha virt. eigenvalues --    1.20739   1.21240   1.22422   1.22883   1.24636
 Alpha virt. eigenvalues --    1.26454   1.27081   1.29442   1.31800   1.32628
 Alpha virt. eigenvalues --    1.33831   1.36188   1.37444   1.38265   1.39753
 Alpha virt. eigenvalues --    1.41940   1.43754   1.44271   1.46032   1.47320
 Alpha virt. eigenvalues --    1.47973   1.49037   1.50073   1.52192   1.53598
 Alpha virt. eigenvalues --    1.54687   1.55380   1.57691   1.59480   1.60463
 Alpha virt. eigenvalues --    1.62061   1.65171   1.68476   1.71011   1.71599
 Alpha virt. eigenvalues --    1.72121   1.72275   1.74279   1.75374   1.76135
 Alpha virt. eigenvalues --    1.78743   1.80616   1.80795   1.81169   1.81616
 Alpha virt. eigenvalues --    1.83631   1.84213   1.85515   1.86603   1.87743
 Alpha virt. eigenvalues --    1.89424   1.90704   1.92191   1.93648   1.94587
 Alpha virt. eigenvalues --    1.95926   1.96929   1.98331   1.98610   2.00408
 Alpha virt. eigenvalues --    2.02324   2.04332   2.05619   2.07125   2.08148
 Alpha virt. eigenvalues --    2.08825   2.10758   2.11295   2.12859   2.15537
 Alpha virt. eigenvalues --    2.16379   2.19345   2.20114   2.23916   2.25858
 Alpha virt. eigenvalues --    2.27314   2.28626   2.29087   2.31871   2.32436
 Alpha virt. eigenvalues --    2.34155   2.35577   2.36359   2.37533   2.40298
 Alpha virt. eigenvalues --    2.41036   2.41689   2.43105   2.43367   2.44821
 Alpha virt. eigenvalues --    2.45964   2.49464   2.50905   2.51920   2.56296
 Alpha virt. eigenvalues --    2.60437   2.62266   2.62847   2.64256   2.66092
 Alpha virt. eigenvalues --    2.67230   2.70618   2.71072   2.72469   2.74737
 Alpha virt. eigenvalues --    2.74781   2.78699   2.81341   2.82738   2.83415
 Alpha virt. eigenvalues --    2.85801   2.86245   2.86523   2.87486   2.88848
 Alpha virt. eigenvalues --    2.91515   2.93247   2.95094   2.97820   2.98045
 Alpha virt. eigenvalues --    2.98894   3.00213   3.01212   3.03475   3.04236
 Alpha virt. eigenvalues --    3.04912   3.07134   3.09626   3.11649   3.11724
 Alpha virt. eigenvalues --    3.12634   3.15464   3.16519   3.18445   3.20130
 Alpha virt. eigenvalues --    3.20564   3.21414   3.24452   3.26524   3.27988
 Alpha virt. eigenvalues --    3.28336   3.29450   3.30514   3.30892   3.32660
 Alpha virt. eigenvalues --    3.34140   3.34607   3.35190   3.36964   3.38169
 Alpha virt. eigenvalues --    3.39449   3.41220   3.41813   3.43410   3.43548
 Alpha virt. eigenvalues --    3.46003   3.46682   3.47997   3.48926   3.50640
 Alpha virt. eigenvalues --    3.51344   3.52526   3.54065   3.55825   3.56781
 Alpha virt. eigenvalues --    3.57066   3.57675   3.58891   3.60528   3.61981
 Alpha virt. eigenvalues --    3.63446   3.64161   3.66655   3.68033   3.69612
 Alpha virt. eigenvalues --    3.70891   3.71622   3.72052   3.73964   3.78672
 Alpha virt. eigenvalues --    3.84757   3.88453   3.90585   3.92647   3.95430
 Alpha virt. eigenvalues --    3.96552   3.98242   4.01648   4.02123   4.07705
 Alpha virt. eigenvalues --    4.09488   4.12067   4.16818   4.18318   4.18771
 Alpha virt. eigenvalues --    4.20026   4.22853   4.26138   4.27230   4.28349
 Alpha virt. eigenvalues --    4.31142   4.32583   4.33575   4.37357   4.40971
 Alpha virt. eigenvalues --    4.43000   4.46559   4.50702   4.53957   4.57798
 Alpha virt. eigenvalues --    4.63247   4.65684   4.70873   4.73595   4.76161
 Alpha virt. eigenvalues --    4.76891   4.77664   4.81698   4.83333   4.83910
 Alpha virt. eigenvalues --    4.87936   4.90212   4.93091   4.94610   4.95722
 Alpha virt. eigenvalues --    4.96767   4.98428   5.00907   5.04153   5.07892
 Alpha virt. eigenvalues --    5.11966   5.14301   5.19467   5.20614   5.22435
 Alpha virt. eigenvalues --    5.23436   5.24946   5.26326   5.26905   5.28409
 Alpha virt. eigenvalues --    5.31352   5.35435   5.39452   5.40284   5.40665
 Alpha virt. eigenvalues --    5.44085   5.46896   5.48699   5.53475   5.54698
 Alpha virt. eigenvalues --    5.56506   5.60350   5.64046   5.65945   5.68352
 Alpha virt. eigenvalues --    5.70275   5.71373   5.76636   5.78960   5.85978
 Alpha virt. eigenvalues --    5.92741   5.94456   6.01293   6.07032   6.09157
 Alpha virt. eigenvalues --    6.14793   6.25151   6.41066   6.42849   6.43209
 Alpha virt. eigenvalues --    6.50560   6.51784   6.54731   6.58032   6.60595
 Alpha virt. eigenvalues --    6.62423   6.65104   6.66677   6.81292   6.82906
 Alpha virt. eigenvalues --    6.90608   6.92249   6.94164   6.95647   6.97278
 Alpha virt. eigenvalues --    7.10440   7.20322   7.28047   7.29250   7.31723
 Alpha virt. eigenvalues --    7.43237   7.48264   7.51633   7.81914   7.84252
 Alpha virt. eigenvalues --   22.70697  22.90935  22.94589  23.05130  23.17608
 Alpha virt. eigenvalues --   23.36122  23.50199  32.51151  32.79975  44.23570
 Alpha virt. eigenvalues --   44.35193  44.46267  44.62912
          Condensed to atoms (all electrons):
              1          2          3          4          5          6
     1  C    7.396233   0.518432  -0.171594   0.010121  -0.711453  -0.459642
     2  C    0.518432   6.020218   0.235476  -0.145191  -0.072910  -0.611604
     3  C   -0.171594   0.235476   6.388283   0.088330  -0.188515  -0.058684
     4  C    0.010121  -0.145191   0.088330   6.957628  -0.187152  -0.469158
     5  C   -0.711453  -0.072910  -0.188515  -0.187152   7.396344  -0.243409
     6  C   -0.459642  -0.611604  -0.058684  -0.469158  -0.243409   7.841407
     7  H    0.317549  -0.067431  -0.004771  -0.004473   0.015729  -0.128164
     8  H    0.001607  -0.085642   0.302599  -0.102038   0.024840   0.007732
     9  H   -0.004307   0.019721  -0.082197   0.418579  -0.172607   0.011709
    10  N   -0.149797   0.495990  -0.228309  -0.004542   0.017376  -0.025074
    11  O    0.003062  -0.110107   0.028968   0.024574  -0.005174  -0.004455
    12  O    0.000218  -0.083969   0.016952  -0.004224  -0.006927   0.028099
    13  N   -0.017594   0.001009  -0.007488  -0.082208   0.181540   0.009985
    14  H   -0.004392   0.003273   0.005521  -0.035144   0.004989  -0.033104
    15  H   -0.010562  -0.000520   0.001235  -0.005680  -0.060314   0.012308
    16  C   -0.248005   0.042206   0.012392   0.065779  -0.553023   0.065455
    17  O    0.073462   0.013456  -0.001192   0.000354  -0.007603  -0.151154
    18  O   -0.003695  -0.007030   0.003207   0.015513  -0.019391   0.071646
    19  H   -0.010385   0.000279   0.000147  -0.000534  -0.003359  -0.001812
              7          8          9         10         11         12
     1  C    0.317549   0.001607  -0.004307  -0.149797   0.003062   0.000218
     2  C   -0.067431  -0.085642   0.019721   0.495990  -0.110107  -0.083969
     3  C   -0.004771   0.302599  -0.082197  -0.228309   0.028968   0.016952
     4  C   -0.004473  -0.102038   0.418579  -0.004542   0.024574  -0.004224
     5  C    0.015729   0.024840  -0.172607   0.017376  -0.005174  -0.006927
     6  C   -0.128164   0.007732   0.011709  -0.025074  -0.004455   0.028099
     7  H    0.375558   0.001898  -0.000238   0.007289  -0.003404  -0.006726
     8  H    0.001898   0.405815  -0.006777   0.004757   0.004122  -0.002532
     9  H   -0.000238  -0.006777   0.515594  -0.001097   0.000181   0.000181
    10  N    0.007289   0.004757  -0.001097   5.784148   0.103377   0.104378
    11  O   -0.003404   0.004122   0.000181   0.103377   8.635799  -0.098845
    12  O   -0.006726  -0.002532   0.000181   0.104378  -0.098845   8.629914
    13  N    0.000303  -0.000151   0.009765  -0.000308   0.000109   0.000184
    14  H   -0.000110   0.000166   0.011643  -0.000002   0.000007  -0.000005
    15  H   -0.000328  -0.000034  -0.002182  -0.000012  -0.000001   0.000029
    16  C   -0.022840  -0.002025  -0.001459  -0.001637   0.000478  -0.001725
    17  O    0.028189   0.000041   0.000025  -0.000259  -0.000017   0.000285
    18  O    0.001635   0.000190  -0.000638   0.000498   0.000000  -0.000087
    19  H   -0.000356  -0.000014   0.000037  -0.000035   0.000000   0.000016
             13         14         15         16         17         18
     1  C   -0.017594  -0.004392  -0.010562  -0.248005   0.073462  -0.003695
     2  C    0.001009   0.003273  -0.000520   0.042206   0.013456  -0.007030
     3  C   -0.007488   0.005521   0.001235   0.012392  -0.001192   0.003207
     4  C   -0.082208  -0.035144  -0.005680   0.065779   0.000354   0.015513
     5  C    0.181540   0.004989  -0.060314  -0.553023  -0.007603  -0.019391
     6  C    0.009985  -0.033104   0.012308   0.065455  -0.151154   0.071646
     7  H    0.000303  -0.000110  -0.000328  -0.022840   0.028189   0.001635
     8  H   -0.000151   0.000166  -0.000034  -0.002025   0.000041   0.000190
     9  H    0.009765   0.011643  -0.002182  -0.001459   0.000025  -0.000638
    10  N   -0.000308  -0.000002  -0.000012  -0.001637  -0.000259   0.000498
    11  O    0.000109   0.000007  -0.000001   0.000478  -0.000017   0.000000
    12  O    0.000184  -0.000005   0.000029  -0.001725   0.000285  -0.000087
    13  N    6.575242   0.342614   0.413767   0.016020  -0.000731  -0.045428
    14  H    0.342614   0.566879  -0.055313  -0.006468   0.000085   0.000880
    15  H    0.413767  -0.055313   0.463684   0.023989  -0.002175  -0.024377
    16  C    0.016020  -0.006468   0.023989   5.712230   0.259110   0.042396
    17  O   -0.000731   0.000085  -0.002175   0.259110   8.431943  -0.104069
    18  O   -0.045428   0.000880  -0.024377   0.042396  -0.104069   8.371441
    19  H   -0.003927  -0.000052   0.007806   0.057340   0.014401   0.147352
             19
     1  C   -0.010385
     2  C    0.000279
     3  C    0.000147
     4  C   -0.000534
     5  C   -0.003359
     6  C   -0.001812
     7  H   -0.000356
     8  H   -0.000014
     9  H    0.000037
    10  N   -0.000035
    11  O    0.000000
    12  O    0.000016
    13  N   -0.003927
    14  H   -0.000052
    15  H    0.007806
    16  C    0.057340
    17  O    0.014401
    18  O    0.147352
    19  H    0.485899
 Mulliken atomic charges:
              1
     1  C   -0.529257
     2  C   -0.165655
     3  C   -0.340360
     4  C   -0.540535
     5  C    0.591017
     6  C    0.137920
     7  H    0.490691
     8  H    0.445445
     9  H    0.284065
    10  N    0.893258
    11  O   -0.578676
    12  O   -0.575215
    13  N   -0.392704
    14  H    0.198535
    15  H    0.238680
    16  C    0.539787
    17  O   -0.554152
    18  O   -0.450044
    19  H    0.307198
 Sum of Mulliken atomic charges =   0.00000
 Mulliken charges with hydrogens summed into heavy atoms:
              1
     1  C   -0.038566
     2  C   -0.165655
     3  C    0.105085
     4  C   -0.256471
     5  C    0.591017
     6  C    0.137920
    10  N    0.893258
    11  O   -0.578676
    12  O   -0.575215
    13  N    0.044511
    16  C    0.539787
    17  O   -0.554152
    18  O   -0.142846
 Sum of Mulliken charges with hydrogens summed into heavy atoms =   0.00000
 Electronic spatial extent (au):  <R**2>=           2519.3853
 Charge=              0.0000 electrons
 Dipole moment (field-independent basis, Debye):
    X=             -5.5816    Y=              5.0103    Z=             -0.4850  Tot=              7.5162
 Quadrupole moment (field-independent basis, Debye-Ang):
   XX=            -78.7321   YY=            -74.9375   ZZ=            -73.7022
   XY=             -1.6119   XZ=              0.3628   YZ=             -2.4467
 Traceless Quadrupole moment (field-independent basis, Debye-Ang):
   XX=             -2.9415   YY=              0.8531   ZZ=              2.0884
   XY=             -1.6119   XZ=              0.3628   YZ=             -2.4467
 Octapole moment (field-independent basis, Debye-Ang**2):
  XXX=           -130.0317  YYY=             45.1118  ZZZ=              4.5249  XYY=             -3.3674
  XXY=             15.3664  XXZ=             -2.0507  XZZ=             -1.8247  YZZ=             -7.8484
  YYZ=              1.5348  XYZ=             10.2955
 Hexadecapole moment (field-independent basis, Debye-Ang**3):
 XXXX=          -2177.1806 YYYY=           -836.2847 ZZZZ=           -111.6192 XXXY=             50.0089
 XXXZ=            -38.7020 YYYX=            -67.3585 YYYZ=             -3.8035 ZZZX=             -6.9243
 ZZZY=             -3.7159 XXYY=           -514.0260 XXZZ=           -355.2759 YYZZ=           -164.6315
 XXYZ=            -40.7398 YYXZ=              7.2898 ZZXY=              3.6645
 N-N= 7.731520810426D+02 E-N=-3.139866251652D+03  KE= 6.777891015417D+02
 Calling FoFJK, ICntrl=      2127 FMM=F ISym2X=0 I1Cent= 0 IOpClX= 0 NMat=1 NMatS=1 NMatT=0.
 FoFJK:  IHMeth= 1 ICntrl=  2127 DoSepK=T KAlg= 1 I1Cent= 0 FoldK=F
 ***** Axes restored to original set *****
 -------------------------------------------------------------------
 Center     Atomic                   Forces (Hartrees/Bohr)
 Number     Number              X              Y              Z
 -------------------------------------------------------------------
      1        6           0.003914892    0.007355305   -0.010782539
      2        6           0.008054024    0.003531974    0.010149945
      3        6           0.001370032   -0.015137537    0.003634296
      4        6           0.003405781    0.006732692   -0.010523172
      5        6           0.004994889   -0.011820361    0.000145994
      6        6          -0.044842827   -0.016602891    0.032292552
      7        1          -0.005450981   -0.003572873   -0.000977941
      8        1          -0.000516598   -0.000848869    0.001274831
      9        1          -0.000232858    0.001395361    0.001053486
     10        7          -0.000615155    0.017097391    0.002639361
     11        8           0.002298224   -0.008913307    0.018823253
     12        8          -0.000997876   -0.009064203   -0.022336061
     13        7           0.017259490    0.011318888   -0.024265141
     14        1          -0.001258409    0.002009626   -0.000419757
     15        1          -0.005148586   -0.001652639   -0.008865821
     16        6           0.013708377    0.000866354    0.047189437
     17        8           0.007929958    0.004018130   -0.049596369
     18        8          -0.005465523    0.002393308    0.008629949
     19        1           0.001593144    0.010893651    0.001933697
 -------------------------------------------------------------------
 Cartesian Forces:  Max     0.049596369 RMS     0.014485152

 GradGradGradGradGradGradGradGradGradGradGradGradGradGradGradGradGradGrad
 Berny optimization.
 Internal  Forces:  Max     0.077432656 RMS     0.017667222
 Search for a local minimum.
 Step number   1 out of a maximum of   95
 All quantities printed in internal units (Hartrees-Bohrs-Radians)
 Mixed Optimization -- RFO/linear search
 Second derivative matrix not updated -- first step.
     Eigenvalues ---    0.00237   0.00787   0.00940   0.00940   0.01863
     Eigenvalues ---    0.01974   0.02064   0.02116   0.02203   0.02239
     Eigenvalues ---    0.02257   0.02261   0.02270   0.02280   0.02443
     Eigenvalues ---    0.03975   0.16000   0.16000   0.16000   0.16000
     Eigenvalues ---    0.16000   0.16000   0.21858   0.22084   0.23024
     Eigenvalues ---    0.24008   0.24971   0.25000   0.25000   0.25000
     Eigenvalues ---    0.25000   0.25000   0.28519   0.35403   0.35558
     Eigenvalues ---    0.35874   0.37360   0.42156   0.42961   0.45937
     Eigenvalues ---    0.46142   0.46231   0.46966   0.47854   0.48318
     Eigenvalues ---    0.49341   0.53140   0.53562   0.90730   0.90974
     Eigenvalues ---    0.913391000.000001000.000001000.000001000.00000
     Eigenvalues --- 1000.000001000.000001000.000001000.000001000.00000
     Eigenvalues --- 1000.000001000.000001000.000001000.000001000.00000
     Eigenvalues --- 1000.000001000.000001000.000001000.000001000.00000
     Eigenvalues --- 1000.000001000.000001000.000001000.000001000.00000
     Eigenvalues --- 1000.000001000.000001000.000001000.000001000.00000
     Eigenvalues --- 1000.000001000.000001000.000001000.000001000.00000
 RFO step:  Lambda=-8.11489894D-02 EMin= 2.36824089D-03
 Linear search not attempted -- first point.
 Maximum step size (   0.300) exceeded in Quadratic search.
    -- Step size scaled by   0.535
 Iteration  1 RMS(Cart)=  0.15889653 RMS(Int)=  0.00763687
 Iteration  2 RMS(Cart)=  0.01120188 RMS(Int)=  0.00061116
 Iteration  3 RMS(Cart)=  0.00007355 RMS(Int)=  0.00061055
 Iteration  4 RMS(Cart)=  0.00000001 RMS(Int)=  0.00061055
 Variable       Old X    -DE/DX   Delta X   Delta X   Delta X     New X
                                 (Linear)    (Quad)   (Total)
    R1        2.62566  -0.01274   0.00000  -0.01306  -0.01306   2.61259
    R2        2.61318   0.00623   0.00000   0.00622   0.00634   2.61953
    R3        2.04779  -0.00285   0.00000  -0.00349  -0.00349   2.04430
    R4        2.61768  -0.00532   0.00000  -0.00616  -0.00628   2.61140
    R5        2.75307  -0.00096   0.00000  -0.00113  -0.00113   2.75194
    R6        2.62179  -0.01662   0.00000  -0.01625  -0.01637   2.60542
    R7        2.04279  -0.00144   0.00000  -0.00175  -0.00175   2.04104
    R8        2.63641   0.00394   0.00000   0.00463   0.00463   2.64104
    R9        2.05026  -0.00161   0.00000  -0.00198  -0.00198   2.04828
   R10        2.65487   0.04135   0.00000   0.04297   0.04310   2.69797
   R11        2.60536  -0.01195   0.00000  -0.01113  -0.01113   2.59423
   R12        2.91018  -0.00855   0.00000  -0.01250  -0.01250   2.89768
   R13        2.32322  -0.02093   0.00000  -0.01127  -0.01127   2.31195
   R14        2.32598  -0.02402   0.00000  -0.01301  -0.01301   2.31297
   R15        1.90672  -0.00094   0.00000  -0.00093  -0.00093   1.90579
   R16        1.90902  -0.00886   0.00000  -0.00878  -0.00878   1.90024
   R17        2.32487  -0.04648   0.00000  -0.02512  -0.02512   2.29976
   R18        2.56433  -0.01332   0.00000  -0.01156  -0.01156   2.55277
   R19        1.83524  -0.00393   0.00000  -0.00343  -0.00343   1.83180
    A1        2.07078   0.01535   0.00000   0.02476   0.02495   2.09573
    A2        2.09189  -0.00598   0.00000  -0.00857  -0.00866   2.08322
    A3        2.12051  -0.00937   0.00000  -0.01619  -0.01628   2.10423
    A4        2.12802  -0.00093   0.00000  -0.00621  -0.00626   2.12176
    A5        2.06839   0.00318   0.00000   0.00749   0.00752   2.07591
    A6        2.08677  -0.00226   0.00000  -0.00129  -0.00127   2.08551
    A7        2.06750   0.00478   0.00000   0.00404   0.00385   2.07135
    A8        2.09401  -0.00234   0.00000  -0.00190  -0.00184   2.09216
    A9        2.12168  -0.00244   0.00000  -0.00212  -0.00207   2.11961
   A10        2.12132   0.00624   0.00000   0.01012   0.01008   2.13140
   A11        2.08763  -0.00382   0.00000  -0.00660  -0.00658   2.08105
   A12        2.07422  -0.00242   0.00000  -0.00350  -0.00348   2.07074
   A13        2.06284  -0.00410   0.00000  -0.00479  -0.00471   2.05813
   A14        2.14105  -0.04594   0.00000  -0.07447  -0.07473   2.06633
   A15        2.07825   0.05022   0.00000   0.08060   0.08036   2.15860
   A16        2.11591  -0.02133   0.00000  -0.02785  -0.02815   2.08776
   A17        2.01065  -0.04939   0.00000  -0.08092  -0.08265   1.92800
   A18        2.01328   0.07743   0.00000   0.14496   0.14551   2.15880
   A19        2.05562  -0.00035   0.00000  -0.00056  -0.00057   2.05506
   A20        2.05384   0.00286   0.00000   0.00462   0.00462   2.05845
   A21        2.17373  -0.00251   0.00000  -0.00406  -0.00406   2.16967
   A22        2.02906  -0.00474   0.00000  -0.00920  -0.00922   2.01983
   A23        2.01626   0.00897   0.00000   0.02125   0.02122   2.03748
   A24        1.99321  -0.00151   0.00000  -0.00159  -0.00162   1.99159
   A25        2.27021  -0.04375   0.00000  -0.07074  -0.07110   2.19911
   A26        1.95991   0.04316   0.00000   0.06978   0.06938   2.02930
   A27        2.05307   0.00059   0.00000   0.00096   0.00054   2.05360
   A28        1.93047  -0.01880   0.00000  -0.04175  -0.04175   1.88872
    D1       -0.00122  -0.00377   0.00000  -0.00764  -0.00732  -0.00854
    D2       -3.14011  -0.00174   0.00000  -0.00546  -0.00545   3.13762
    D3        3.13571  -0.00571   0.00000  -0.00725  -0.00655   3.12916
    D4       -0.00318  -0.00368   0.00000  -0.00507  -0.00469  -0.00787
    D5       -0.00194   0.00691   0.00000   0.02489   0.02445   0.02250
    D6       -2.56786  -0.03004   0.00000  -0.08722  -0.08498  -2.65284
    D7       -3.13880   0.00887   0.00000   0.02446   0.02365  -3.11515
    D8        0.57847  -0.02808   0.00000  -0.08764  -0.08578   0.49269
    D9        0.00271  -0.00181   0.00000  -0.01158  -0.01180  -0.00909
   D10       -3.13992   0.00130   0.00000   0.00144   0.00109  -3.13883
   D11        3.14158  -0.00385   0.00000  -0.01377  -0.01366   3.12791
   D12       -0.00106  -0.00075   0.00000  -0.00075  -0.00077  -0.00183
   D13        3.13631  -0.00046   0.00000   0.00208   0.00223   3.13854
   D14       -0.00494  -0.00092   0.00000  -0.00066  -0.00051  -0.00545
   D15       -0.00265   0.00152   0.00000   0.00422   0.00407   0.00142
   D16        3.13929   0.00106   0.00000   0.00147   0.00132   3.14061
   D17       -0.00108   0.00448   0.00000   0.01417   0.01368   0.01261
   D18        3.13427   0.00366   0.00000   0.01956   0.01942  -3.12949
   D19        3.14157   0.00132   0.00000   0.00093   0.00058  -3.14103
   D20       -0.00626   0.00049   0.00000   0.00633   0.00632   0.00006
   D21       -0.00193  -0.00149   0.00000   0.00230   0.00314   0.00120
   D22        3.08995   0.00433   0.00000   0.03636   0.03606   3.12601
   D23       -3.13733  -0.00066   0.00000  -0.00305  -0.00256  -3.13989
   D24       -0.04545   0.00515   0.00000   0.03102   0.03037  -0.01508
   D25        0.00347  -0.00437   0.00000  -0.02231  -0.02226  -0.01879
   D26        2.56858  -0.00632   0.00000   0.02058   0.02348   2.59206
   D27       -3.09024  -0.00722   0.00000  -0.05068  -0.05239   3.14055
   D28       -0.52513  -0.00917   0.00000  -0.00779  -0.00665  -0.53179
   D29        0.43343  -0.00361   0.00000  -0.02237  -0.02254   0.41089
   D30        2.84042  -0.00077   0.00000  -0.00975  -0.00991   2.83051
   D31       -2.75829   0.00074   0.00000   0.00961   0.00977  -2.74852
   D32       -0.35131   0.00359   0.00000   0.02223   0.02240  -0.32891
   D33       -0.54114   0.00472   0.00000   0.04057   0.04004  -0.50109
   D34        2.60051  -0.00434   0.00000  -0.01395  -0.01359   2.58692
   D35        3.14159   0.00033   0.00000  -0.01181  -0.01217   3.12942
   D36        0.00005  -0.00874   0.00000  -0.06633  -0.06580  -0.06575
   D37        3.14159   0.00575   0.00000   0.03302   0.03397  -3.10763
   D38        0.00004  -0.00208   0.00000  -0.01406  -0.01501  -0.01497
         Item               Value     Threshold  Converged?
 Maximum Force            0.077433     0.000015     NO 
 RMS     Force            0.017667     0.000010     NO 
 Maximum Displacement     0.679241     0.000060     NO 
 RMS     Displacement     0.162078     0.000040     NO 
 Predicted change in Energy=-3.539461D-02
 GradGradGradGradGradGradGradGradGradGradGradGradGradGradGradGradGradGrad

                          Input orientation:                          
 ---------------------------------------------------------------------
 Center     Atomic      Atomic             Coordinates (Angstroms)
 Number     Number       Type             X           Y           Z
 ---------------------------------------------------------------------
      1          6           0       -0.323493   -0.318381   -0.005422
      2          6           0       -0.485089    0.371503   -1.192570
      3          6           0       -0.483214   -0.277592   -2.412528
      4          6           0       -0.304494   -1.644511   -2.434455
      5          6           0       -0.140834   -2.391385   -1.264575
      6          6           0       -0.164386   -1.695354   -0.018250
      7          1           0       -0.319097    0.227191    0.928714
      8          1           0       -0.609184    0.288868   -3.323465
      9          1           0       -0.290152   -2.161300   -3.387118
     10          7           0       -0.655243    1.817165   -1.149961
     11          8           0       -0.793180    2.406029   -2.213447
     12          8           0       -0.653535    2.362782   -0.054330
     13          7           0        0.013027   -3.751116   -1.374360
     14          1           0        0.361320   -4.082114   -2.261045
     15          1           0        0.398165   -4.228649   -0.577623
     16          6           0       -0.684297   -2.307345    1.288055
     17          8           0       -0.712820   -1.758115    2.373674
     18          8           0       -1.209327   -3.548839    1.199299
     19          1           0       -1.526732   -3.807140    2.078032
 ---------------------------------------------------------------------
                    Distance matrix (angstroms):
                    1          2          3          4          5
     1  C    0.000000
     2  C    1.382525   0.000000
     3  C    2.412745   1.381892   0.000000
     4  C    2.767522   2.374700   1.378727   0.000000
     5  C    2.432319   2.785183   2.429638   1.397578   0.000000
     6  C    1.386194   2.398703   2.800762   2.420798   1.427705
     7  H    1.081795   2.132657   3.383141   3.848946   3.420415
     8  H    3.385230   2.136105   1.080070   2.149681   3.412058
     9  H    3.851407   3.356953   2.129661   1.083903   2.140193
    10  N    2.445524   1.456265   2.451872   3.708928   4.241421
    11  O    3.538134   2.297043   2.708789   4.085894   4.933670
    12  O    2.701844   2.299817   3.544247   4.673887   4.932511
    13  N    3.710917   4.156580   3.659155   2.379581   1.372805
    14  H    4.441001   4.657547   3.900073   2.532842   2.025753
    15  H    4.017262   4.724372   4.444610   3.258730   2.034198
    16  C    2.399841   3.656420   4.225476   3.800089   2.611194
    17  O    2.807936   4.159955   5.015216   4.826772   3.736985
    18  O    3.559763   4.649155   4.926824   4.201113   2.924389
    19  H    4.237924   5.407672   5.806184   5.151055   3.885627
                    6          7          8          9         10
     6  C    0.000000
     7  H    2.148687   0.000000
     8  H    3.880648   4.262510   0.000000
     9  H    3.403263   4.932762   2.471671   0.000000
    10  N    3.722835   2.638542   2.657430   4.578903   0.000000
    11  O    4.694211   3.852956   2.397576   4.742472   1.223434
    12  O    4.087669   2.374652   3.871735   5.630883   1.223972
    13  N    2.469144   4.608838   4.528535   2.582756   5.612726
    14  H    3.317096   5.404410   4.601749   2.319910   6.088465
    15  H    2.654609   4.757944   5.381669   3.555415   6.163530
    16  C    1.533386   2.585802   5.292644   4.694031   4.791278
    17  O    2.454794   2.486839   6.054608   5.790331   5.020154
    18  O    2.451476   3.888976   5.961842   4.879075   5.883879
    19  H    3.272617   4.365220   6.840713   5.840017   6.543106
                   11         12         13         14         15
    11  O    0.000000
    12  O    2.164060   0.000000
    13  N    6.266137   6.290194   0.000000
    14  H    6.590231   6.887395   1.008503   0.000000
    15  H    6.936438   6.695287   1.005564   1.690189   0.000000
    16  C    5.872671   4.859324   3.107924   4.103563   2.888579
    17  O    6.195824   4.783358   4.306584   5.294844   4.005993
    18  O    6.876080   6.068588   2.856359   3.837356   2.490708
    19  H    7.586723   6.586151   3.780610   4.740037   3.306873
                   16         17         18         19
    16  C    0.000000
    17  O    1.216978   0.000000
    18  O    1.350867   2.198265   0.000000
    19  H    1.892920   2.224491   0.969349   0.000000
 Stoichiometry    C7H6N2O4
 Framework group  C1[X(C7H6N2O4)]
 Deg. of freedom    51
 Full point group                 C1      NOp   1
 Largest Abelian subgroup         C1      NOp   1
 Largest concise Abelian subgroup C1      NOp   1
                         Standard orientation:                         
 ---------------------------------------------------------------------
 Center     Atomic      Atomic             Coordinates (Angstroms)
 Number     Number       Type             X           Y           Z
 ---------------------------------------------------------------------
      1          6           0        0.306790   -0.654920   -0.300817
      2          6           0        1.391999    0.157296   -0.028788
      3          6           0        1.245616    1.516367    0.174007
      4          6           0       -0.016133    2.065760    0.090084
      5          6           0       -1.147777    1.290669   -0.177946
      6          6           0       -0.967457   -0.113078   -0.365890
      7          1           0        0.463845   -1.712576   -0.465061
      8          1           0        2.112758    2.125670    0.382254
      9          1           0       -0.139786    3.132605    0.236362
     10          7           0        2.718962   -0.438789    0.038738
     11          8           0        3.664006    0.300555    0.277597
     12          8           0        2.815765   -1.645121   -0.144289
     13          7           0       -2.369754    1.914406   -0.226092
     14          1           0       -2.349581    2.901655   -0.431059
     15          1           0       -3.114747    1.415512   -0.681337
     16          6           0       -2.017054   -1.164003    0.015125
     17          8           0       -1.912811   -2.366939   -0.136912
     18          8           0       -3.129374   -0.703345    0.627808
     19          1           0       -3.693533   -1.461938    0.842047
 ---------------------------------------------------------------------
 Rotational constants (GHZ):      1.3999883      0.5580798      0.4081968
 Basis read from rwf:  (5D, 7F)
 There are   547 symmetry adapted basis functions of A   symmetry.
 Integral buffers will be    131072 words long.
 Raffenetti 2 integral format.
 Two-electron integral symmetry is turned on.
   547 basis functions,   832 primitive gaussians,   625 cartesian basis functions
    47 alpha electrons       47 beta electrons
       nuclear repulsion energy       769.7975140222 Hartrees.
 NAtoms=   19 NActive=   19 NUniq=   19 SFac= 7.50D-01 NAtFMM=   80 NAOKFM=F Big=F
 One-electron integrals computed using PRISM.
 NBasis=   547 RedAO= T  NBF=   547
 NBsUse=   545 1.00D-06 NBFU=   545
 Initial guess read from the read-write file.
 B after Tr=     0.000000    0.000000    0.000000
         Rot=    1.000000    0.000000    0.000000    0.000000 Ang=   0.00 deg.
 Initial guess orbital symmetries:
       Occupied  (A) (A) (A) (A) (A) (A) (A) (A) (A) (A) (A) (A)
                 (A) (A) (A) (A) (A) (A) (A) (A) (A) (A) (A) (A)
                 (A) (A) (A) (A) (A) (A) (A) (A) (A) (A) (A) (A)
                 (A) (A) (A) (A) (A) (A) (A) (A) (A) (A) (A)
       Virtual   (A) (A) (A) (A) (A) (A) (A) (A) (A) (A) (A) (A)
                 (A) (A) (A) (A) (A) (A) (A) (A) (A) (A) (A) (A)
                 (A) (A) (A) (A) (A) (A) (A) (A) (A) (A) (A) (A)
                 (A) (A) (A) (A) (A) (A) (A) (A) (A) (A) (A) (A)
                 (A) (A) (A) (A) (A) (A) (A) (A) (A) (A) (A) (A)
                 (A) (A) (A) (A) (A) (A) (A) (A) (A) (A) (A) (A)
                 (A) (A) (A) (A) (A) (A) (A) (A) (A) (A) (A) (A)
                 (A) (A) (A) (A) (A) (A) (A) (A) (A) (A) (A) (A)
                 (A) (A) (A) (A) (A) (A) (A) (A) (A) (A) (A) (A)
                 (A) (A) (A) (A) (A) (A) (A) (A) (A) (A) (A) (A)
                 (A) (A) (A) (A) (A) (A) (A) (A) (A) (A) (A) (A)
                 (A) (A) (A) (A) (A) (A) (A) (A) (A) (A) (A) (A)
                 (A) (A) (A) (A) (A) (A) (A) (A) (A) (A) (A) (A)
                 (A) (A) (A) (A) (A) (A) (A) (A) (A) (A) (A) (A)
                 (A) (A) (A) (A) (A) (A) (A) (A) (A) (A) (A) (A)
                 (A) (A) (A) (A) (A) (A) (A) (A) (A) (A) (A) (A)
                 (A) (A) (A) (A) (A) (A) (A) (A) (A) (A) (A) (A)
                 (A) (A) (A) (A) (A) (A) (A) (A) (A) (A) (A) (A)
                 (A) (A) (A) (A) (A) (A) (A) (A) (A) (A) (A) (A)
                 (A) (A) (A) (A) (A) (A) (A) (A) (A) (A) (A) (A)
                 (A) (A) (A) (A) (A) (A) (A) (A) (A) (A) (A) (A)
                 (A) (A) (A) (A) (A) (A) (A) (A) (A) (A) (A) (A)
                 (A) (A) (A) (A) (A) (A) (A) (A) (A) (A) (A) (A)
                 (A) (A) (A) (A) (A) (A) (A) (A) (A) (A) (A) (A)
                 (A) (A) (A) (A) (A) (A) (A) (A) (A) (A) (A) (A)
                 (A) (A) (A) (A) (A) (A) (A) (A) (A) (A) (A) (A)
                 (A) (A) (A) (A) (A) (A) (A) (A) (A) (A) (A) (A)
                 (A) (A) (A) (A) (A) (A) (A) (A) (A) (A) (A) (A)
                 (A) (A) (A) (A) (A) (A) (A) (A) (A) (A) (A) (A)
                 (A) (A) (A) (A) (A) (A) (A) (A) (A) (A) (A) (A)
                 (A) (A) (A) (A) (A) (A) (A) (A) (A) (A) (A) (A)
                 (A) (A) (A) (A) (A) (A) (A) (A) (A) (A) (A) (A)
                 (A) (A) (A) (A) (A) (A) (A) (A) (A) (A) (A) (A)
                 (A) (A) (A) (A) (A) (A) (A) (A) (A) (A) (A) (A)
                 (A) (A) (A) (A) (A) (A) (A) (A) (A) (A) (A) (A)
                 (A) (A) (A) (A) (A) (A) (A) (A) (A) (A) (A) (A)
                 (A) (A) (A) (A) (A) (A) (A) (A) (A) (A) (A) (A)
                 (A) (A) (A) (A) (A) (A) (A) (A) (A) (A) (A) (A)
                 (A) (A) (A) (A) (A) (A) (A) (A) (A) (A) (A) (A)
                 (A) (A) (A) (A) (A) (A) (A) (A) (A) (A) (A) (A)
                 (A) (A) (A) (A) (A) (A) (A) (A) (A) (A) (A) (A)
                 (A) (A) (A) (A) (A) (A)
 Harris functional with IExCor=20419 diagonalized for initial guess.
 ExpMin= 4.85D-02 ExpMax= 2.70D+04 ExpMxC= 9.22D+02 IAcc=3 IRadAn=         5 AccDes= 0.00D+00
 HarFok:  IExCor=20419 AccDes= 0.00D+00 IRadAn=         5 IDoV= 1
 ScaDFX=  1.000000  1.000000  1.000000  1.000000
 FoFCou: FMM=F IPFlag=           0 FMFlag=      100000 FMFlg1=           0
         NFxFlg=           0 DoJE=T BraDBF=F KetDBF=T FulRan=T
         Omega=  0.000000  0.000000  1.000000  0.000000  0.000000 ICntrl=     500 IOpCl=  0
         NMat0=    1 NMatS0=    1 NMatT0=    0 NMatD0=    1 NMtDS0=    0 NMtDT0=    0
         I1Cent=           4 NGrid=           0.
 Petite list used in FoFCou.
 FoFJK:  IHMeth= 1 ICntrl=     0 DoSepK=T KAlg= 1 I1Cent= 0 FoldK=F
 Gradient too large for Newton-Raphson -- use scaled steepest descent instead.
 FoFJK:  IHMeth= 1 ICntrl=     0 DoSepK=T KAlg= 1 I1Cent= 0 FoldK=F
 FoFJK:  IHMeth= 1 ICntrl=     0 DoSepK=T KAlg= 1 I1Cent= 0 FoldK=F
 FoFJK:  IHMeth= 1 ICntrl=     0 DoSepK=T KAlg= 1 I1Cent= 0 FoldK=F
 FoFJK:  IHMeth= 1 ICntrl=     0 DoSepK=T KAlg= 1 I1Cent= 0 FoldK=F
 FoFJK:  IHMeth= 1 ICntrl=     0 DoSepK=T KAlg= 1 I1Cent= 0 FoldK=F
 FoFJK:  IHMeth= 1 ICntrl=     0 DoSepK=T KAlg= 1 I1Cent= 0 FoldK=F
 FoFJK:  IHMeth= 1 ICntrl=     0 DoSepK=T KAlg= 1 I1Cent= 0 FoldK=F
 Gradient too large for Newton-Raphson -- use scaled steepest descent instead.
 FoFJK:  IHMeth= 1 ICntrl=     0 DoSepK=T KAlg= 1 I1Cent= 0 FoldK=F
 FoFJK:  IHMeth= 1 ICntrl=     0 DoSepK=T KAlg= 1 I1Cent= 0 FoldK=F
 FoFJK:  IHMeth= 1 ICntrl=     0 DoSepK=T KAlg= 1 I1Cent= 0 FoldK=F
 Gradient too large for Newton-Raphson -- use scaled steepest descent instead.
 FoFJK:  IHMeth= 1 ICntrl=     0 DoSepK=T KAlg= 1 I1Cent= 0 FoldK=F
 FoFJK:  IHMeth= 1 ICntrl=     0 DoSepK=T KAlg= 1 I1Cent= 0 FoldK=F
 FoFJK:  IHMeth= 1 ICntrl=     0 DoSepK=T KAlg= 1 I1Cent= 0 FoldK=F
 FoFJK:  IHMeth= 1 ICntrl=     0 DoSepK=T KAlg= 1 I1Cent= 0 FoldK=F
 Gradient too large for Newton-Raphson -- use scaled steepest descent instead.
 FoFJK:  IHMeth= 1 ICntrl=     0 DoSepK=T KAlg= 1 I1Cent= 0 FoldK=F
 FoFJK:  IHMeth= 1 ICntrl=     0 DoSepK=T KAlg= 1 I1Cent= 0 FoldK=F
 FoFJK:  IHMeth= 1 ICntrl=     0 DoSepK=T KAlg= 1 I1Cent= 0 FoldK=F
 LinEq1:  Iter=  0 NonCon=     1 RMS=2.63D-05 Max=1.34D-03
 AX will form     1 AO Fock derivatives at one time.
 FoFJK:  IHMeth= 1 ICntrl=     0 DoSepK=T KAlg= 1 I1Cent= 0 FoldK=F
 LinEq1:  Iter=  1 NonCon=     1 RMS=3.03D-05 Max=2.20D-03
 FoFJK:  IHMeth= 1 ICntrl=     0 DoSepK=T KAlg= 1 I1Cent= 0 FoldK=F
 LinEq1:  Iter=  2 NonCon=     1 RMS=7.85D-06 Max=3.70D-04
 FoFJK:  IHMeth= 1 ICntrl=     0 DoSepK=T KAlg= 1 I1Cent= 0 FoldK=F
 LinEq1:  Iter=  3 NonCon=     1 RMS=7.54D-06 Max=3.18D-04
 FoFJK:  IHMeth= 1 ICntrl=     0 DoSepK=T KAlg= 1 I1Cent= 0 FoldK=F
 LinEq1:  Iter=  4 NonCon=     1 RMS=1.79D-06 Max=7.70D-05
 FoFJK:  IHMeth= 1 ICntrl=     0 DoSepK=T KAlg= 1 I1Cent= 0 FoldK=F
 LinEq1:  Iter=  5 NonCon=     1 RMS=9.74D-07 Max=4.35D-05
 FoFJK:  IHMeth= 1 ICntrl=     0 DoSepK=T KAlg= 1 I1Cent= 0 FoldK=F
 LinEq1:  Iter=  6 NonCon=     1 RMS=2.52D-07 Max=9.43D-06
 FoFJK:  IHMeth= 1 ICntrl=     0 DoSepK=T KAlg= 1 I1Cent= 0 FoldK=F
 LinEq1:  Iter=  7 NonCon=     1 RMS=1.19D-07 Max=5.02D-06
 FoFJK:  IHMeth= 1 ICntrl=     0 DoSepK=T KAlg= 1 I1Cent= 0 FoldK=F
 LinEq1:  Iter=  8 NonCon=     1 RMS=5.94D-08 Max=2.79D-06
 FoFJK:  IHMeth= 1 ICntrl=     0 DoSepK=T KAlg= 1 I1Cent= 0 FoldK=F
 LinEq1:  Iter=  9 NonCon=     1 RMS=3.32D-08 Max=1.21D-06
 FoFJK:  IHMeth= 1 ICntrl=     0 DoSepK=T KAlg= 1 I1Cent= 0 FoldK=F
 LinEq1:  Iter= 10 NonCon=     1 RMS=1.73D-08 Max=6.24D-07
 FoFJK:  IHMeth= 1 ICntrl=     0 DoSepK=T KAlg= 1 I1Cent= 0 FoldK=F
 LinEq1:  Iter= 11 NonCon=     1 RMS=9.02D-09 Max=3.87D-07
 FoFJK:  IHMeth= 1 ICntrl=     0 DoSepK=T KAlg= 1 I1Cent= 0 FoldK=F
 LinEq1:  Iter= 12 NonCon=     0 RMS=5.25D-09 Max=1.51D-07
 Linear equations converged to 2.164D-08 2.164D-07 after    12 iterations.
 FoFJK:  IHMeth= 1 ICntrl=     0 DoSepK=T KAlg= 1 I1Cent= 0 FoldK=F
 FoFJK:  IHMeth= 1 ICntrl=     0 DoSepK=T KAlg= 1 I1Cent= 0 FoldK=F
 FoFJK:  IHMeth= 1 ICntrl=     0 DoSepK=T KAlg= 1 I1Cent= 0 FoldK=F
 LinEq1:  Iter=  0 NonCon=     1 RMS=2.88D-08 Max=8.24D-07
 FoFJK:  IHMeth= 1 ICntrl=     0 DoSepK=T KAlg= 1 I1Cent= 0 FoldK=F
 LinEq1:  Iter=  1 NonCon=     1 RMS=2.41D-08 Max=1.00D-06
 FoFJK:  IHMeth= 1 ICntrl=     0 DoSepK=T KAlg= 1 I1Cent= 0 FoldK=F
 LinEq1:  Iter=  2 NonCon=     1 RMS=1.11D-08 Max=4.05D-07
 FoFJK:  IHMeth= 1 ICntrl=     0 DoSepK=T KAlg= 1 I1Cent= 0 FoldK=F
 LinEq1:  Iter=  3 NonCon=     1 RMS=7.38D-09 Max=3.22D-07
 FoFJK:  IHMeth= 1 ICntrl=     0 DoSepK=T KAlg= 1 I1Cent= 0 FoldK=F
 LinEq1:  Iter=  4 NonCon=     1 RMS=3.79D-09 Max=1.15D-07
 FoFJK:  IHMeth= 1 ICntrl=     0 DoSepK=T KAlg= 1 I1Cent= 0 FoldK=F
 LinEq1:  Iter=  5 NonCon=     1 RMS=2.13D-09 Max=6.85D-08
 FoFJK:  IHMeth= 1 ICntrl=     0 DoSepK=T KAlg= 1 I1Cent= 0 FoldK=F
 LinEq1:  Iter=  6 NonCon=     1 RMS=1.42D-09 Max=8.10D-08
 FoFJK:  IHMeth= 1 ICntrl=     0 DoSepK=T KAlg= 1 I1Cent= 0 FoldK=F
 LinEq1:  Iter=  7 NonCon=     1 RMS=1.11D-09 Max=7.09D-08
 FoFJK:  IHMeth= 1 ICntrl=     0 DoSepK=T KAlg= 1 I1Cent= 0 FoldK=F
 LinEq1:  Iter=  8 NonCon=     1 RMS=7.65D-10 Max=3.14D-08
 FoFJK:  IHMeth= 1 ICntrl=     0 DoSepK=T KAlg= 1 I1Cent= 0 FoldK=F
 LinEq1:  Iter=  9 NonCon=     1 RMS=4.78D-10 Max=1.97D-08
 FoFJK:  IHMeth= 1 ICntrl=     0 DoSepK=T KAlg= 1 I1Cent= 0 FoldK=F
 LinEq1:  Iter= 10 NonCon=     1 RMS=2.84D-10 Max=1.01D-08
 FoFJK:  IHMeth= 1 ICntrl=     0 DoSepK=T KAlg= 1 I1Cent= 0 FoldK=F
 LinEq1:  Iter= 11 NonCon=     1 RMS=1.45D-10 Max=4.27D-09
 FoFJK:  IHMeth= 1 ICntrl=     0 DoSepK=T KAlg= 1 I1Cent= 0 FoldK=F
 LinEq1:  Iter= 12 NonCon=     1 RMS=7.35D-11 Max=2.37D-09
 FoFJK:  IHMeth= 1 ICntrl=     0 DoSepK=T KAlg= 1 I1Cent= 0 FoldK=F
 LinEq1:  Iter= 13 NonCon=     1 RMS=3.07D-11 Max=1.24D-09
 FoFJK:  IHMeth= 1 ICntrl=     0 DoSepK=T KAlg= 1 I1Cent= 0 FoldK=F
 LinEq1:  Iter= 14 NonCon=     1 RMS=1.42D-11 Max=5.74D-10
 FoFJK:  IHMeth= 1 ICntrl=     0 DoSepK=T KAlg= 1 I1Cent= 0 FoldK=F
 LinEq1:  Iter= 15 NonCon=     0 RMS=1.00D-11 Max=2.16D-10
 Linear equations converged to 5.441D-11 5.441D-10 after    15 iterations.
 FoFJK:  IHMeth= 1 ICntrl=     0 DoSepK=T KAlg= 1 I1Cent= 0 FoldK=F
 FoFJK:  IHMeth= 1 ICntrl=     0 DoSepK=T KAlg= 1 I1Cent= 0 FoldK=F
 FoFJK:  IHMeth= 1 ICntrl=     0 DoSepK=T KAlg= 1 I1Cent= 0 FoldK=F
 FoFJK:  IHMeth= 1 ICntrl=     0 DoSepK=T KAlg= 1 I1Cent= 0 FoldK=F
 FoFJK:  IHMeth= 1 ICntrl=     0 DoSepK=T KAlg= 1 I1Cent= 0 FoldK=F
 FoFJK:  IHMeth= 1 ICntrl=     0 DoSepK=T KAlg= 1 I1Cent= 0 FoldK=F
 FoFJK:  IHMeth= 1 ICntrl=     0 DoSepK=T KAlg= 1 I1Cent= 0 FoldK=F
 FoFJK:  IHMeth= 1 ICntrl=     0 DoSepK=T KAlg= 1 I1Cent= 0 FoldK=F
 FoFJK:  IHMeth= 1 ICntrl=     0 DoSepK=T KAlg= 1 I1Cent= 0 FoldK=F
 FoFJK:  IHMeth= 1 ICntrl=     0 DoSepK=T KAlg= 1 I1Cent= 0 FoldK=F
 FoFJK:  IHMeth= 1 ICntrl=     0 DoSepK=T KAlg= 1 I1Cent= 0 FoldK=F
 FoFJK:  IHMeth= 1 ICntrl=     0 DoSepK=T KAlg= 1 I1Cent= 0 FoldK=F
 FoFJK:  IHMeth= 1 ICntrl=     0 DoSepK=T KAlg= 1 I1Cent= 0 FoldK=F
 FoFJK:  IHMeth= 1 ICntrl=     0 DoSepK=T KAlg= 1 I1Cent= 0 FoldK=F
 FoFJK:  IHMeth= 1 ICntrl=     0 DoSepK=T KAlg= 1 I1Cent= 0 FoldK=F
 Search did not lower the energy significantly.
 No lower point found -- using Newton-Raphson step.
 FoFJK:  IHMeth= 1 ICntrl=     0 DoSepK=T KAlg= 1 I1Cent= 0 FoldK=F
 SCF Done:  E(RCAM-B3LYP) =  -680.667198072     a.u. after    7 cycles
            Convg  =    0.2255D-08                    64 Fock formations.
              S**2 =  0.0000                  -V/T =  2.0042
 Calling FoFJK, ICntrl=      2127 FMM=F ISym2X=0 I1Cent= 0 IOpClX= 0 NMat=1 NMatS=1 NMatT=0.
 FoFJK:  IHMeth= 1 ICntrl=  2127 DoSepK=T KAlg= 1 I1Cent= 0 FoldK=F
 ***** Axes restored to original set *****
 -------------------------------------------------------------------
 Center     Atomic                   Forces (Hartrees/Bohr)
 Number     Number              X              Y              Z
 -------------------------------------------------------------------
      1        6           0.005687912    0.007053357   -0.009584667
      2        6           0.006653285    0.002832911    0.007254017
      3        6           0.001241833   -0.008724016   -0.000073408
      4        6           0.003065121    0.006663699   -0.005479896
      5        6           0.001815290   -0.000382599    0.006601653
      6        6          -0.037671243   -0.016125802    0.014911400
      7        1          -0.005018828   -0.003380241   -0.000012490
      8        1          -0.000715731   -0.000426080    0.000510053
      9        1          -0.000376059    0.000190104    0.000889655
     10        7          -0.001109535    0.012272124    0.002679600
     11        8           0.001133124   -0.005920661    0.010295237
     12        8           0.000186656   -0.006090494   -0.013495213
     13        7           0.004108032    0.008567956    0.003702482
     14        1          -0.002462364   -0.000154522    0.001409573
[...]
 ,0.00016109,-0.00025274,0.00803208,0.00689243,0.00265140,-0.06462598,0
 .03046146,0.00829980,0.14357908,-0.00107566,-0.04973882,0.03209493,0.0
 1463929,-0.03426296,-0.07973337,0.02057389,-0.39720078,0.03154933,-0.0
 5382338,0.76421961,0.00039247,0.02345552,-0.01758447,-0.00138899,-0.02
 561869,0.03199126,0.01345687,-0.03752125,-0.13559211,-0.08191227,0.044
 06704,0.67699450,0.00101909,0.01342977,-0.00277125,-0.00721665,-0.0026
 2471,0.00883656,0.00296947,-0.00720838,-0.00826149,-0.07741021,0.00163
 553,0.01871922,0.19344745,0.00722525,-0.02263460,-0.03781933,-0.003344
 90,0.01709544,0.01124108,-0.00000710,-0.04466023,0.02399066,-0.0069150
 4,-0.15105491,0.08816979,-0.04363668,0.74930518,0.00046474,-0.08115689
 ,0.04070740,0.00921147,0.00621499,-0.07373482,-0.01201729,0.07429344,0
 .04644469,0.02317959,0.02844314,-0.25134301,-0.06855860,0.00811712,0.6
 5504502,-0.06766226,0.01655638,0.01090649,0.00944627,0.00078846,-0.007
 16989,-0.00444000,0.00489040,0.00364562,0.00712237,-0.00532434,0.00748
 057,-0.07645598,0.01558916,0.02679887,0.15449634,0.02436018,-0.3214681
 2,-0.03632561,-0.00736837,-0.04130565,0.07743784,0.00801065,-0.0464858
 6,-0.03356378,-0.00164994,0.05762753,-0.01446626,0.01021234,-0.1643096
 6,-0.02291452,-0.04325173,0.68843422,0.00683627,0.01818482,-0.12210436
 ,-0.00291505,0.02045943,0.01817094,0.00201810,-0.01176780,-0.01151184,
 0.00556373,0.01119918,-0.03691165,0.02960373,-0.06046767,-0.24671763,-
 0.07149530,0.01662420,0.63181387,-0.05295181,0.02291814,0.04234133,0.0
 0738760,0.00130150,0.00257740,0.00550111,0.00012016,0.00091712,-0.0009
 6047,-0.00013350,-0.00024018,0.00627530,0.00066912,0.00073957,0.005584
 38,0.00124073,0.00197379,0.03838269,0.02279808,-0.12185902,-0.11926441
 ,-0.00236098,0.01389288,0.01334282,0.00007279,-0.00215666,0.00355872,-
 0.00008617,-0.00066786,0.00042634,0.00065133,-0.00491440,0.00136761,0.
 00482367,-0.00980653,-0.02547320,-0.02578888,0.12648484,0.04240434,-0.
 12010234,-0.27875944,0.00448714,-0.01224069,-0.01710738,0.00094196,0.0
 0322691,-0.00262211,-0.00026488,0.00075815,0.00045003,0.00074857,0.001
 24367,0.00055300,0.00010511,-0.00044610,0.00545786,-0.04742729,0.12965
 455,0.29335464,0.00449651,0.00096321,0.00147381,0.00552935,-0.00282196
 ,0.00414198,-0.04615073,-0.01132361,0.02244543,0.00616445,0.00158458,-
 0.00203939,0.00914648,0.00128015,0.00123022,-0.00078130,0.00012657,-0.
 00015467,0.00009247,-0.00016677,0.00014983,0.03119591,0.00097882,-0.00
 139811,-0.00361543,0.00097011,0.01327629,-0.01061698,-0.01155477,-0.13
 908367,0.13041243,-0.00244040,-0.01026694,0.02552530,0.00114051,-0.004
 64111,-0.00063393,0.00009262,-0.00083617,-0.00062484,0.00004684,0.0006
 9968,-0.00063931,0.01154260,0.14434954,0.00146550,-0.00350604,-0.00362
 860,0.00216467,0.01586856,-0.01748472,0.02256572,0.12880047,-0.2685784
 9,0.00005982,-0.00259154,0.00692439,0.00130320,-0.00160937,0.00115454,
 -0.00013701,-0.00086115,0.00061228,0.00003841,0.00085263,-0.00061159,-
 0.02545360,-0.14108981,0.27979170,-0.00084959,-0.00016110,-0.00016985,
 0.00765126,0.00084121,0.00068601,0.00272422,0.00099273,0.00211186,-0.0
 4229812,0.02255566,0.04234138,0.00361762,0.00190722,0.00219851,0.00440
 560,-0.00010458,0.00083364,-0.00029987,-0.00001916,-0.00003707,-0.0051
 6695,-0.00044313,-0.00086663,0.03231157,-0.00009304,-0.00112676,0.0007
 7547,0.00070041,-0.00460758,0.00158533,0.00536913,-0.01215013,-0.02954
 919,0.02267289,-0.12040516,-0.11359217,-0.00261264,0.00894433,0.015709
 21,0.00005934,-0.00114566,0.00253891,-0.00001884,0.00002170,-0.0000396
 4,-0.00051341,0.00119323,0.00018711,-0.02527152,0.12769340,-0.00020535
 ,0.00125011,-0.00010372,0.00075962,0.00060147,0.00219302,-0.00017061,0
 .00102034,0.00376025,0.04228006,-0.11277434,-0.27105523,0.00455581,-0.
 01585952,-0.01947627,0.00074820,0.00368385,-0.00262995,-0.00003724,-0.
 00003740,-0.00002698,-0.00083001,-0.00030392,0.00063177,-0.04658061,0.
 12231145,0.28532433,-0.00276042,-0.00024983,-0.00439028,-0.08510208,0.
 00369733,0.00492745,-0.00419449,0.00623603,-0.00108796,0.00646760,0.00
 027375,0.00248374,-0.00125901,0.00101637,0.00064552,0.00896846,-0.0014
 2627,0.00206905,-0.00532668,-0.00061228,-0.00013051,-0.00352585,-0.000
 25181,-0.00026108,0.00125661,0.00031527,0.00012424,0.26868158,-0.00008
 494,-0.04546474,0.02253282,0.00444483,-0.13370905,-0.00518358,0.005555
 44,-0.03785816,-0.02108767,0.00050332,0.01328231,-0.00687334,0.0013191
 6,-0.01601598,-0.00143339,-0.00122846,0.01554836,0.00524930,-0.0001657
 3,0.00118937,-0.00227600,-0.00079492,0.00111036,0.00310591,0.00001220,
 0.00042756,0.00036892,-0.03150039,0.68674089,-0.00447600,0.02367825,0.
 01550857,0.00453729,0.00004145,-0.11583357,-0.00073373,-0.02583603,0.0
 1471582,0.00236419,-0.00527259,-0.00692048,0.00048750,0.00068566,-0.00
 485309,0.00196593,0.00663100,-0.00803380,-0.00036354,0.00084531,-0.003
 29263,0.00002243,-0.00068889,-0.00337950,0.00028230,-0.00174833,0.0002
 3774,-0.10223292,-0.00689362,0.96960076,0.00344993,0.00042744,0.000709
 52,0.02147118,-0.00040750,0.00060144,0.00082982,0.00159977,0.00115146,
 -0.00038996,-0.00043829,-0.00032596,0.00011424,0.00026530,-0.00012078,
 -0.00142733,0.00004269,-0.00061222,0.00058518,0.00023492,-0.00007477,-
 0.00012275,0.00034452,-0.00055516,-0.00003428,-0.00002228,0.00000657,-
 0.08782796,-0.01354133,0.03439480,0.03798022,0.00156097,-0.00258255,-0
 .00768642,-0.00273672,-0.04272408,0.05264466,-0.00022341,-0.00138101,0
 .00286430,-0.00018187,-0.00196056,0.00204766,-0.00057592,0.00406242,0.
 00196566,0.00007657,-0.00497419,0.00126998,0.00003545,0.00055347,-0.00
 022702,0.00020315,-0.00425970,0.00071145,0.00003167,-0.00018812,-0.000
 14127,-0.01376280,-0.25694709,0.18644527,0.01558002,0.26414121,0.00011
 810,0.00023235,0.00263681,0.00181679,0.03636960,-0.01014353,0.00210294
 ,-0.00987509,-0.00842398,-0.00045973,0.00384066,0.00073886,0.00031790,
 -0.00391175,-0.00006449,-0.00062981,0.00150750,0.00210227,0.00002921,-
 0.00162142,0.00123296,-0.00048136,-0.00027645,0.00333044,-0.00002156,0
 .00023551,-0.00000716,0.03451012,0.18489957,-0.42151922,-0.05843228,-0
 .23062272,0.55938833,0.00096107,-0.00157187,0.00163035,0.01914437,0.00
 984281,0.00827147,0.00371475,0.00070220,-0.00027735,-0.00100287,0.0004
 8240,-0.00032159,0.00030836,-0.00078251,0.00006650,-0.00080924,0.00083
 556,-0.00025630,0.00006823,0.00033521,-0.00031994,0.00040871,-0.000211
 79,-0.00012226,-0.00058992,0.00006007,-0.00007959,-0.09603700,0.036963
 17,0.06398413,0.02580807,-0.00052838,0.02152990,0.04809435,0.00060865,
 -0.00032485,-0.00352163,0.01173161,-0.03889096,-0.05068728,-0.00047574
 ,-0.00382283,0.00726032,0.00032997,-0.00424671,-0.00061760,-0.00010245
 ,0.00423552,-0.00135707,0.00029553,-0.00250977,-0.00116394,0.00050224,
 -0.00402131,-0.00138658,0.00000952,0.00042361,-0.00009214,0.00002817,-
 0.00093668,-0.00001954,0.03721377,-0.24128272,-0.17801580,-0.00386635,
 0.05070668,0.01561014,-0.04666296,0.24419447,0.00049283,0.01171356,-0.
 00847570,0.00728616,-0.03749153,-0.01028455,0.00033695,-0.00096826,0.0
 0187838,-0.00024192,-0.00168273,0.00155538,-0.00028813,0.00339239,0.00
 050309,0.00002547,-0.00493721,0.00161400,-0.00040706,-0.00021954,0.003
 00580,-0.00023794,0.00145472,0.00127781,-0.00006294,-0.00024248,-0.000
 03069,0.06385333,-0.17626534,-0.43830205,0.02327148,-0.00771150,-0.129
 72874,-0.09433503,0.21486213,0.57813371,0.00422116,-0.00102578,0.00193
 769,-0.00080940,0.00146229,-0.00057469,0.00424937,-0.00033846,0.001611
 38,0.01212670,-0.00157945,-0.00066385,-0.04812152,0.02675320,0.0145769
 8,0.00761614,0.00948019,0.00340911,-0.00003824,0.00019888,-0.00007682,
 -0.00038457,-0.00018138,-0.00009814,-0.00260289,-0.00051835,-0.0005942
 2,-0.00045658,-0.00130418,-0.00003600,0.00006307,0.00038792,-0.0003388
 1,-0.00002574,0.00031721,0.00016163,0.04111652,-0.00027763,0.00247840,
 0.00295239,0.00254436,-0.01715479,-0.00923313,-0.00213375,0.01856780,0
 .00754487,0.00224485,-0.06246391,0.02310400,0.02573733,-0.36354844,-0.
 01317238,0.00727331,-0.02588227,-0.03271749,-0.00005302,-0.00023104,0.
 00047304,-0.00001861,-0.00027822,0.00006002,-0.00017855,0.00195197,-0.
 00119376,-0.00109329,0.01525121,-0.00061011,-0.00014726,-0.00423410,0.
 00326039,0.00074022,-0.00438949,-0.00287029,-0.05345886,0.78607327,0.0
 0154707,0.00817978,-0.01065224,-0.00113822,-0.00168030,0.00804489,0.00
 254730,-0.00499089,-0.01073447,-0.00265853,0.04981512,0.00450749,0.015
 10415,-0.02023601,-0.13899352,0.00456054,-0.04813062,0.00205417,0.0000
 5457,-0.00128661,0.00025559,-0.00018307,0.00119721,0.00024210,-0.00077
 157,0.00118061,0.00204652,-0.00014638,0.00086846,0.00001018,-0.0000596
 8,-0.00047987,0.00071080,-0.00005877,0.00008334,0.00038826,-0.12068770
 ,-0.02626343,0.87658204,0.00154162,0.00013849,0.00038827,0.00016491,-0
 .00021974,-0.00013049,-0.00098220,0.00019020,0.00000097,-0.00264386,-0
 .00100169,-0.00038496,-0.00427286,0.00134682,0.00172374,0.00373142,0.0
 0035382,-0.00011397,-0.00019725,0.00001212,-0.00004213,0.00020306,0.00
 000606,0.00002932,0.00076370,0.00010799,0.00003477,0.00005499,0.000216
 19,0.00000180,-0.00004972,-0.00006176,0.00004025,-0.00002325,-0.000062
 50,-0.00004868,-0.01118059,0.03054622,0.06692405,0.01735480,0.00035255
 ,0.00028112,-0.00177144,-0.00007804,0.00023025,0.00049277,-0.00004968,
 -0.00038570,0.00004320,-0.00000127,0.00180257,-0.00237831,0.00570271,-
 0.01293838,-0.03512787,0.00024750,-0.00471781,0.00268323,-0.00000165,-
 0.00037591,0.00010211,0.00001396,-0.00000905,0.00001557,-0.00016561,-0
 .00026271,0.00169898,0.00002462,-0.00027738,0.00000992,-0.00001547,0.0
 0008330,0.00003925,-0.00004116,0.00017313,0.00017909,0.03018670,-0.137
 07228,-0.13898709,-0.03215571,0.13808750,0.00027677,-0.00027696,-0.000
 18135,-0.00020447,0.00148410,0.00078408,0.00012603,-0.00163273,-0.0009
 9735,-0.00090674,0.00461176,0.00115416,-0.00054580,-0.00471847,0.00234
 791,-0.00005871,0.00194016,0.00314091,-0.00003494,0.00000566,0.0000387
 0,0.00002520,0.00007076,-0.00000519,0.00017754,-0.00021204,-0.00035207
 ,0.00010184,-0.00132945,0.00005366,0.00001610,0.00036299,-0.00035046,-
 0.00005987,0.00032839,0.00021201,0.06710753,-0.14148324,-0.39423555,-0
 .06845787,0.15525444,0.40231317,-0.00049393,0.00012319,-0.00011275,0.0
 0005252,0.00025920,0.00035759,0.00204177,-0.00024576,-0.00013535,0.004
 19344,0.00150807,0.00052438,-0.00335081,-0.00007898,-0.00460665,-0.001
 75521,-0.00031746,0.00033975,0.00006593,0.00004098,-0.00001947,-0.0004
 8182,0.00000759,-0.00006272,-0.00076684,-0.00006700,-0.00014580,-0.000
 14824,-0.00026759,-0.00003346,0.00001397,0.00005311,-0.00002522,-0.000
 01401,0.00008363,0.00007983,-0.00558605,-0.01092741,0.03287846,-0.0045
 0098,-0.00359878,0.00208148,0.01231689,-0.00005999,-0.00062992,0.00048
 611,-0.00001151,0.00070541,-0.00022338,-0.00005606,-0.00038196,0.00163
 562,0.00110247,-0.00395231,-0.00335459,-0.00333278,-0.01765675,0.03040
 154,-0.00033130,0.00206449,0.00033456,0.00000771,0.00005152,-0.0000461
 8,0.00000331,-0.00033875,-0.00010207,-0.00010559,0.00012797,0.00025740
 ,0.00002666,-0.00064257,0.00005879,0.00001721,0.00020796,-0.00022126,-
 0.00002384,0.00018426,0.00007237,-0.01079313,-0.20690563,0.18246349,0.
 00065666,0.01512844,-0.01481416,0.01295650,0.21525840,-0.00001718,-0.0
 0079278,0.00003284,0.00049852,-0.00211309,-0.00225709,-0.00023415,0.00
 295908,0.00209636,0.00073595,-0.00618798,0.00246614,-0.00290883,0.0076
 5505,0.01231287,0.00034666,0.00023904,-0.00427656,-0.00000211,-0.00027
 864,0.00022631,-0.00006045,-0.00013221,0.00000106,-0.00012565,-0.00001
 216,0.00009116,-0.00018687,0.00211300,0.00003017,-0.00000648,-0.000471
 66,0.00030564,0.00013584,-0.00067809,-0.00059158,0.03280929,0.18342072
 ,-0.32659608,-0.00013956,0.01490986,-0.01127865,-0.03131651,-0.1982270
 7,0.33100156,0.00129950,-0.00362641,-0.00143340,0.00757644,0.00234602,
 -0.00088895,-0.00106454,0.00107807,0.00062903,0.00621438,0.00054256,0.
 00190008,-0.00163169,-0.00174172,0.00413238,-0.08195725,-0.00076447,0.
 01003961,-0.00423757,0.00041402,-0.00080269,-0.00075446,-0.00004772,-0
 .00004910,-0.00005948,-0.00011417,0.00008877,0.00201156,-0.00108838,-0
 .00070164,-0.00070958,0.00044312,-0.00001957,-0.00027117,0.00047119,0.
 00060535,-0.00215297,-0.00112831,-0.00086968,-0.00015608,0.00007364,0.
 00003569,0.00000560,0.00050714,0.00042439,0.23491034,-0.00331081,-0.02
 545564,0.03683549,0.00210768,-0.00710511,-0.00704014,-0.00041860,0.004
 18015,0.00027763,0.00106230,-0.00616166,-0.00080299,-0.00201810,0.0420
 4090,-0.00843810,-0.00303943,-0.12222561,0.04295703,-0.00030876,-0.002
 67042,0.00129555,-0.00004718,-0.00019470,0.00003201,0.00018778,0.00045
 225,-0.00157622,-0.00011634,-0.00127024,0.00242989,-0.00000097,0.00066
 010,-0.00069202,0.00006387,0.00067602,-0.00087667,0.00047859,-0.018424
 58,0.00503062,-0.00014377,-0.00167945,0.00180566,0.00245248,-0.0020080
 4,-0.01603002,-0.05351947,0.65428961,-0.00159816,0.03904207,-0.0083769
 4,-0.00076497,-0.00870594,0.01750775,0.00140993,-0.01017876,-0.0054336
 0,0.00162893,0.00282851,-0.00632749,0.00427614,-0.01037170,-0.02563415
 ,0.01122687,0.02706514,-0.17312469,-0.00042573,-0.00375337,0.00061003,
 -0.00004933,0.00003590,-0.00043884,-0.00006872,0.00053290,0.00014681,-
 0.00120865,0.00922037,0.00546421,0.00021209,-0.00379462,-0.00018156,0.
 00081776,-0.00372228,-0.00392090,-0.00170752,0.01626039,0.00108920,0.0
 0014905,0.00028590,-0.00133655,-0.00059046,-0.00244083,0.00550094,-0.1
 0912840,0.14489170,0.90208628,0.00016726,0.00250745,-0.00049428,-0.000
 85132,-0.00072863,0.00079452,0.00008291,-0.00033852,-0.00021012,-0.001
 46668,0.00009294,-0.00016272,0.00359756,-0.00129413,0.00036275,0.01903
 844,0.00152920,0.01243586,-0.00030591,-0.00039409,0.00017798,0.0001332
 6,0.00000524,-0.00001613,-0.00012053,-0.00005541,0.00007954,-0.0002118
 3,0.00084258,0.00047583,0.00007959,-0.00027211,-0.00005844,0.00020227,
 -0.00034983,-0.00038668,0.00001491,0.00046719,0.00042054,-0.00024841,-
 0.00009383,-0.00007686,0.00051504,-0.00002610,-0.00037007,-0.09773292,
 0.04853691,0.08999028,0.05579354,0.00001957,-0.00860882,0.00450205,-0.
 00013354,0.00397793,-0.00155509,-0.00019198,0.00007307,0.00131719,-0.0
 0027853,0.00103059,0.00063467,0.00055983,-0.00645687,0.00130977,0.0001
 6136,0.02009879,-0.00069185,-0.00045135,0.00222835,0.00182940,-0.00002
 924,0.00014885,0.00019508,-0.00004316,-0.00003255,0.00025942,0.0003441
 1,-0.00109066,-0.00187740,-0.00008586,0.00001205,0.00062028,-0.0001940
 5,0.00028580,0.00126958,0.00012817,0.00339948,-0.00261066,-0.00001597,
 0.00066532,-0.00037463,-0.00073974,0.00025749,0.00527331,0.04925639,-0
 .25299318,-0.25450716,-0.06671765,0.31177302,0.00080343,-0.01287846,0.
 00138840,0.00048424,0.00260210,-0.00553160,-0.00028662,0.00234135,0.00
 080847,0.00003107,-0.00196057,-0.00067750,-0.00060417,0.01426195,0.000
 33484,0.01314928,-0.01024832,-0.06558161,0.00020789,0.00142904,-0.0025
 0748,0.00000184,-0.00004575,0.00014225,0.00007320,0.00034496,-0.000804
 31,0.00073581,-0.00535949,-0.00242572,-0.00015559,0.00192122,0.0001356
 6,-0.00046792,0.00235788,0.00215995,0.00059715,-0.00497940,-0.00146594
 ,-0.00011742,0.00016945,0.00046590,0.00000223,0.00028806,0.00029470,0.
 08961484,-0.24947948,-0.57714161,-0.11191521,0.32160801,0.64887101,0.0
 0158094,-0.00022076,0.00093330,-0.00030094,-0.00042734,-0.00044062,0.0
 0005736,0.00033933,0.00016559,-0.00032786,-0.00047322,0.00015033,-0.00
 039961,0.00168262,0.00002789,0.01078905,-0.00220886,-0.00011020,0.0001
 7231,-0.00017222,0.00016539,-0.00002035,-0.00000460,-0.00000787,0.0000
 4886,-0.00000064,-0.00003346,-0.00045694,0.00015288,0.00010728,0.00012
 967,-0.00004430,-0.00000732,0.00007967,-0.00008271,-0.00011593,0.00170
 834,-0.00030878,0.00230921,0.00033308,-0.00034707,0.00034212,-0.002017
 38,-0.00029829,0.00043641,-0.06644462,0.00800715,0.00958159,0.02735307
 ,0.01853120,0.00759332,0.04997965,-0.00058743,0.00514139,0.00230740,-0
 .00070525,-0.00005024,0.00474601,0.00060498,-0.00435842,-0.00189735,-0
 .00003742,0.00421767,-0.00211626,0.00171706,-0.01651339,-0.00352427,0.
 00110796,-0.03262252,0.01481107,0.00006239,0.00179064,-0.00127437,-0.0
 0001252,0.00011182,0.00001780,-0.00006449,0.00003022,0.00045767,-0.000
 12175,0.00147620,-0.00014406,0.00000180,-0.00132952,0.00074655,0.00000
 104,-0.00060215,0.00033652,-0.00057184,0.01325555,-0.00186551,0.000064
 33,0.00077873,-0.00067019,-0.00084654,-0.00304307,0.00646898,0.0133373
 3,-0.23823433,-0.00253686,0.01646315,-0.08263958,-0.05634787,-0.015957
 96,0.43162322,0.00112463,-0.00025353,-0.00602588,-0.00029573,0.0028050
 4,0.00020689,0.00002705,-0.00004172,-0.00006083,-0.00007693,0.00092783
 ,-0.00028818,0.00000974,-0.00328217,0.00137331,-0.00184052,0.03798160,
 0.00365375,0.00004302,0.00036457,-0.00030754,-0.00000373,-0.00003759,0
 .00002384,-0.00000016,0.00001169,0.00003904,0.00025054,-0.00206241,-0.
 00110451,-0.00003137,0.00106845,-0.00021296,-0.00015961,0.00092157,0.0
 0069123,0.00244686,-0.00370580,-0.01314381,0.00012739,0.00220442,-0.00
 168455,0.00072224,0.00263974,-0.00839991,0.00680111,0.03470273,-0.1300
 9166,0.00867201,-0.07079447,0.00616967,-0.07353774,-0.09371603,0.60091
 096,0.00072943,0.00006471,0.00000953,-0.00037221,0.00001241,-0.0000906
 5,0.00006141,0.00002877,0.00002663,-0.00018814,-0.00003914,-0.00000915
 ,-0.00037723,0.00006586,-0.00005542,0.00409008,0.00089974,0.00053507,0
 .00020259,0.00001852,0.00001524,0.00001857,0.00000068,0.00000307,0.000
 00904,0.00000219,-0.00000067,-0.00013372,-0.00003386,-0.00004618,0.000
 03663,0.00001528,0.00000892,-0.00001664,0.00001105,0.00001130,0.000242
 33,0.00017198,0.00022774,0.00010762,-0.00005340,0.00005496,-0.00008991
 ,-0.00023906,-0.00001919,0.00515452,0.00002666,-0.00375070,-0.00604026
 ,-0.00011955,0.00025264,-0.02226431,-0.01445485,0.05572118,0.01883019,
 -0.00013705,-0.00069137,0.00170161,0.00006516,-0.00025567,-0.00052222,
 0.00001476,0.00007196,-0.00010550,-0.00001675,0.00020232,-0.00008886,0
 .00000609,-0.00033908,-0.00006406,0.00121299,-0.00548359,-0.00340492,0
 .00001744,-0.00020930,0.00009484,0.00000115,-0.00000695,0.00000550,0.0
 0000026,0.00001269,-0.00000365,-0.00001315,-0.00046768,0.00026128,0.00
 001163,0.00015374,-0.00014107,-0.00000999,0.00014797,-0.00001481,0.000
 37829,-0.00039294,-0.00228766,0.00002225,0.00048829,-0.00035205,-0.000
 39549,0.00157305,0.00188467,-0.00643884,-0.02387609,0.05984864,-0.0001
 7436,0.00787092,-0.00602468,-0.00816642,-0.07903222,0.09026607,0.01362
 201,0.10023396,0.00011476,0.00029211,-0.00021844,-0.00011815,-0.000153
 77,0.00052132,0.00003392,-0.00020326,-0.00006354,-0.00002082,0.0000674
 7,-0.00008209,-0.00002425,-0.00048138,0.00004030,0.00037164,-0.0012167
 5,0.00227206,0.00001580,0.00008734,0.00005023,0.00000282,0.00000879,-0
 .00000525,0.00000033,-0.00001715,0.00001571,-0.00005698,0.00040593,0.0
 0004345,0.00001083,-0.00016657,0.00005032,0.00002228,-0.00016182,-0.00
 008543,0.00012014,-0.00084678,-0.00010963,0.00001547,0.00017652,-0.000
 08877,0.00006244,0.00079186,-0.00095988,-0.00037783,0.01467733,-0.0003
 9724,0.00028121,-0.00640750,-0.00463507,0.05244071,0.13420077,-0.45174
 885,-0.05289431,-0.14105314,0.45540080\\-0.00000106,-0.00000043,0.0000
 0129,0.00000012,0.00000045,-0.00000066,0.00000041,0.00000079,0.0000003
 2,0.,-0.00000139,0.00000064,-0.00000070,0.00000185,-0.00000051,0.00000
 083,-0.00000118,-0.00000160,0.00000037,-0.00000021,-0.00000019,-0.0000
 0009,0.00000026,0.00000047,0.00000025,0.00000057,-0.00000008,0.0000001
 4,-0.00000317,0.00000058,-0.00000056,0.00000226,0.00000099,-0.00000001
 ,0.00000167,-0.00000011,-0.00000009,-0.00000088,-0.00000067,0.,0.00000
 059,-0.00000008,0.00000011,0.00000039,-0.00000053,0.00000003,0.0000016
 8,0.00000087,0.00000006,-0.00000108,-0.00000028,-0.00000006,-0.0000017
 6,-0.00000026,0.00000024,-0.00000041,-0.00000019\\\@


 BE NOT THE FIRST BY WHOM THE NEW ARE TRIED,
 NOR YET THE THE LAST TO LAY THE OLD ASIDE.

                          -- ALEXANDER POPE
 Job cpu time:  0 days 10 hours 26 minutes 53.3 seconds.
 File lengths (MBytes):  RWF=    430 Int=      0 D2E=      0 Chk=     18 Scr=      1
 Normal termination of Gaussian 09 at Sun Feb 12 14:07:15 2023.
