 Entering Gaussian System, Link 0=g09
 Initial command:
 /apps/software//g09/l1.exe /scratch/matheusmaximo/48664.cluster.abaxnet/Gau-141766.inp -scrdir=/scratch/matheusmaximo/48664.cluster.abaxnet/
 Entering Link 1 = /apps/software//g09/l1.exe PID=    141767.
  
 Copyright (c) 1988,1990,1992,1993,1995,1998,2003,2009, Gaussian, Inc.
                  All Rights Reserved.
  
 This is part of the Gaussian(R) 09 program.  It is based on
 the Gaussian(R) 03 system (copyright 2003, Gaussian, Inc.),
 the Gaussian(R) 98 system (copyright 1998, Gaussian, Inc.),
 the Gaussian(R) 94 system (copyright 1995, Gaussian, Inc.),
 the Gaussian 92(TM) system (copyright 1992, Gaussian, Inc.),
 the Gaussian 90(TM) system (copyright 1990, Gaussian, Inc.),
 the Gaussian 88(TM) system (copyright 1988, Gaussian, Inc.),
 the Gaussian 86(TM) system (copyright 1986, Carnegie Mellon
 University), and the Gaussian 82(TM) system (copyright 1983,
 Carnegie Mellon University). Gaussian is a federally registered
 trademark of Gaussian, Inc.
  
 This software contains proprietary and confidential information,
 including trade secrets, belonging to Gaussian, Inc.
  
 This software is provided under written license and may be
 used, copied, transmitted, or stored only in accord with that
 written license.
  
 The following legend is applicable only to US Government
 contracts under FAR:
  
                    RESTRICTED RIGHTS LEGEND
  
 Use, reproduction and disclosure by the US Government is
 subject to restrictions as set forth in subparagraphs (a)
 and (c) of the Commercial Computer Software - Restricted
 Rights clause in FAR 52.227-19.
  
 Gaussian, Inc.
 340 Quinnipiac St., Bldg. 40, Wallingford CT 06492
  
  
 ---------------------------------------------------------------
 Warning -- This program may not be used in any manner that
 competes with the business of Gaussian, Inc. or will provide
 assistance to any competitor of Gaussian, Inc.  The licensee
 of this program is prohibited from giving any competitor of
 Gaussian, Inc. access to this program.  By using this program,
 the user acknowledges that Gaussian, Inc. is engaged in the
 business of creating and licensing software in the field of
 computational chemistry and represents and warrants to the
 licensee that it is not a competitor of Gaussian, Inc. and that
 it will not use this program in any manner prohibited above.
 ---------------------------------------------------------------
  

 Cite this work as:
 Gaussian 09, Revision A.02,
 M. J. Frisch, G. W. Trucks, H. B. Schlegel, G. E. Scuseria, 
 M. A. Robb, J. R. Cheeseman, G. Scalmani, V. Barone, B. Mennucci, 
 G. A. Petersson, H. Nakatsuji, M. Caricato, X. Li, H. P. Hratchian, 
 A. F. Izmaylov, J. Bloino, G. Zheng, J. L. Sonnenberg, M. Hada, 
 M. Ehara, K. Toyota, R. Fukuda, J. Hasegawa, M. Ishida, T. Nakajima, 
 Y. Honda, O. Kitao, H. Nakai, T. Vreven, J. A. Montgomery, Jr., 
 J. E. Peralta, F. Ogliaro, M. Bearpark, J. J. Heyd, E. Brothers, 
 K. N. Kudin, V. N. Staroverov, R. Kobayashi, J. Normand, 
 K. Raghavachari, A. Rendell, J. C. Burant, S. S. Iyengar, J. Tomasi, 
 M. Cossi, N. Rega, J. M. Millam, M. Klene, J. E. Knox, J. B. Cross, 
 V. Bakken, C. Adamo, J. Jaramillo, R. Gomperts, R. E. Stratmann, 
 O. Yazyev, A. J. Austin, R. Cammi, C. Pomelli, J. W. Ochterski, 
 R. L. Martin, K. Morokuma, V. G. Zakrzewski, G. A. Voth, 
 P. Salvador, J. J. Dannenberg, S. Dapprich, A. D. Daniels, 
 O. Farkas, J. B. Foresman, J. V. Ortiz, J. Cioslowski, 
 and D. J. Fox, Gaussian, Inc., Wallingford CT, 2009.
 
 ******************************************
 Gaussian 09:  EM64L-G09RevA.02 11-Jun-2009
                 7-Jan-2023 
 ******************************************
 %chk=/home/matheusmaximo/Gaussian/subst/CCH/cch_s0.chk
 ---------------------------------------------------
 # opt=tight freq cam-b3lyp/gen scf=qc int=ultrafine
 ---------------------------------------------------
 1/7=10,14=-1,18=20,19=15,26=3,38=1/1,3;
 2/9=110,12=2,17=6,18=5,40=1/2;
 3/5=7,11=2,16=1,25=1,30=1,71=1,74=-40,75=-5/1,2,3;
 4//1;
 5/5=2,8=3,38=5/8;
 6/7=2,8=2,9=2,10=2,28=1/1;
 7//1,2,3,16;
 1/7=10,14=-1,18=20,19=15/3(2);
 2/9=110/2;
 99//99;
 2/9=110/2;
 3/5=7,6=1,11=2,16=1,25=1,30=1,71=1,74=-40,75=-5,82=7/1,2,3;
 4/5=5,16=3/1;
 5/5=2,8=3,38=5/8;
 7//1,2,3,16;
 1/7=10,14=-1,18=20,19=15/3(-5);
 2/9=110/2;
 6/7=2,8=2,9=2,10=2,19=2,28=1/1;
 99/9=1/99;
 ---------------------------
 NA+CCH CAM-B3LYP def2-TZVPD
 ---------------------------
 Symbolic Z-matrix:
 Charge =  0 Multiplicity = 1
 C                     0.03125   1.00471   0.66875 
 C                    -0.45753   1.53701  -0.50483 
 C                    -0.68671   0.73911  -1.61613 
 C                    -0.42208  -0.60507  -1.5466 
 C                     0.07504  -1.18062  -0.37046 
 C                     0.30162  -0.35128   0.75052 
 H                     0.20185   1.64751   1.51812 
 H                    -1.06965   1.188    -2.51965 
 H                    -0.59945  -1.23524  -2.40802 
 N                    -0.73474   2.96335  -0.57834 
 O                    -1.17283   3.40202  -1.62403 
 O                    -0.51291   3.63777   0.40784 
 N                     0.31967  -2.51141  -0.29339 
 H                     0.2788   -3.0823   -1.11636 
 H                     0.76619  -2.88764   0.52435 
 C                     0.81182  -0.92649   1.94899 
 C                     1.24491  -1.44856   2.93524 
 H                     1.62475  -1.89086   3.82401 
 

 GradGradGradGradGradGradGradGradGradGradGradGradGradGradGradGradGradGrad
 Berny optimization.
 Initialization pass.
                           ----------------------------
                           !    Initial Parameters    !
                           ! (Angstroms and Degrees)  !
 --------------------------                            --------------------------
 ! Name  Definition              Value          Derivative Info.                !
 --------------------------------------------------------------------------------
 ! R1    R(1,2)                  1.3782         estimate D2E/DX2                !
 ! R2    R(1,6)                  1.3851         estimate D2E/DX2                !
 ! R3    R(1,7)                  1.0788         estimate D2E/DX2                !
 ! R4    R(2,3)                  1.3871         estimate D2E/DX2                !
 ! R5    R(2,10)                 1.4549         estimate D2E/DX2                !
 ! R6    R(3,4)                  1.3717         estimate D2E/DX2                !
 ! R7    R(3,8)                  1.0791         estimate D2E/DX2                !
 ! R8    R(4,5)                  1.4006         estimate D2E/DX2                !
 ! R9    R(4,9)                  1.082          estimate D2E/DX2                !
 ! R10   R(5,6)                  1.4127         estimate D2E/DX2                !
 ! R11   R(5,13)                 1.3553         estimate D2E/DX2                !
 ! R12   R(6,16)                 1.4239         estimate D2E/DX2                !
 ! R13   R(10,11)                1.2157         estimate D2E/DX2                !
 ! R14   R(10,12)                1.2152         estimate D2E/DX2                !
 ! R15   R(13,14)                1.0024         estimate D2E/DX2                !
 ! R16   R(13,15)                1.0048         estimate D2E/DX2                !
 ! R17   R(16,17)                1.197          estimate D2E/DX2                !
 ! R18   R(17,18)                1.0629         estimate D2E/DX2                !
 ! A1    A(2,1,6)              119.8414         estimate D2E/DX2                !
 ! A2    A(2,1,7)              119.7613         estimate D2E/DX2                !
 ! A3    A(6,1,7)              120.3973         estimate D2E/DX2                !
 ! A4    A(1,2,3)              121.2394         estimate D2E/DX2                !
 ! A5    A(1,2,10)             119.2909         estimate D2E/DX2                !
 ! A6    A(3,2,10)             119.4696         estimate D2E/DX2                !
 ! A7    A(2,3,4)              119.4177         estimate D2E/DX2                !
 ! A8    A(2,3,8)              119.3495         estimate D2E/DX2                !
 ! A9    A(4,3,8)              121.2328         estimate D2E/DX2                !
 ! A10   A(3,4,5)              120.9113         estimate D2E/DX2                !
 ! A11   A(3,4,9)              119.9178         estimate D2E/DX2                !
 ! A12   A(5,4,9)              119.1707         estimate D2E/DX2                !
 ! A13   A(4,5,6)              118.8168         estimate D2E/DX2                !
 ! A14   A(4,5,13)             121.0195         estimate D2E/DX2                !
 ! A15   A(6,5,13)             120.1572         estimate D2E/DX2                !
 ! A16   A(1,6,5)              119.7733         estimate D2E/DX2                !
 ! A17   A(1,6,16)             121.0049         estimate D2E/DX2                !
 ! A18   A(5,6,16)             119.2213         estimate D2E/DX2                !
 ! A19   A(2,10,11)            117.7687         estimate D2E/DX2                !
 ! A20   A(2,10,12)            117.9255         estimate D2E/DX2                !
 ! A21   A(11,10,12)           124.3058         estimate D2E/DX2                !
 ! A22   A(5,13,14)            120.3424         estimate D2E/DX2                !
 ! A23   A(5,13,15)            119.614          estimate D2E/DX2                !
 ! A24   A(14,13,15)           118.2304         estimate D2E/DX2                !
 ! A25   L(16,17,18,-1,-1)     181.4363         estimate D2E/DX2                !
 ! A26   L(16,17,18,-2,-2)     180.5671         estimate D2E/DX2                !
 ! A27   L(6,16,17,5,-1)       177.8934         estimate D2E/DX2                !
 ! A28   L(6,16,17,5,-2)       179.6406         estimate D2E/DX2                !
 ! D1    D(6,1,2,3)             -0.0177         estimate D2E/DX2                !
 ! D2    D(6,1,2,10)          -179.8734         estimate D2E/DX2                !
 ! D3    D(7,1,2,3)            179.9224         estimate D2E/DX2                !
 ! D4    D(7,1,2,10)             0.0667         estimate D2E/DX2                !
 ! D5    D(2,1,6,5)              0.0259         estimate D2E/DX2                !
 ! D6    D(2,1,6,16)           179.7637         estimate D2E/DX2                !
 ! D7    D(7,1,6,5)           -179.9138         estimate D2E/DX2                !
 ! D8    D(7,1,6,16)            -0.176          estimate D2E/DX2                !
 ! D9    D(1,2,3,4)             -0.0039         estimate D2E/DX2                !
 ! D10   D(1,2,3,8)           -179.9781         estimate D2E/DX2                !
 ! D11   D(10,2,3,4)           179.8515         estimate D2E/DX2                !
 ! D12   D(10,2,3,8)            -0.1226         estimate D2E/DX2                !
 ! D13   D(1,2,10,11)         -179.5581         estimate D2E/DX2                !
 ! D14   D(1,2,10,12)            0.4825         estimate D2E/DX2                !
 ! D15   D(3,2,10,11)            0.5837         estimate D2E/DX2                !
 ! D16   D(3,2,10,12)         -179.3758         estimate D2E/DX2                !
 ! D17   D(2,3,4,5)              0.017          estimate D2E/DX2                !
 ! D18   D(2,3,4,9)            179.8957         estimate D2E/DX2                !
 ! D19   D(8,3,4,5)            179.9907         estimate D2E/DX2                !
 ! D20   D(8,3,4,9)             -0.1306         estimate D2E/DX2                !
 ! D21   D(3,4,5,6)             -0.0086         estimate D2E/DX2                !
 ! D22   D(3,4,5,13)           179.0719         estimate D2E/DX2                !
 ! D23   D(9,4,5,6)           -179.8882         estimate D2E/DX2                !
 ! D24   D(9,4,5,13)            -0.8076         estimate D2E/DX2                !
 ! D25   D(4,5,6,1)             -0.013          estimate D2E/DX2                !
 ! D26   D(4,5,6,16)          -179.7555         estimate D2E/DX2                !
 ! D27   D(13,5,6,1)          -179.1017         estimate D2E/DX2                !
 ! D28   D(13,5,6,16)            1.1558         estimate D2E/DX2                !
 ! D29   D(4,5,13,14)            9.1595         estimate D2E/DX2                !
 ! D30   D(4,5,13,15)          173.5588         estimate D2E/DX2                !
 ! D31   D(6,5,13,14)         -171.7722         estimate D2E/DX2                !
 ! D32   D(6,5,13,15)           -7.3729         estimate D2E/DX2                !
 --------------------------------------------------------------------------------
 Trust Radius=3.00D-01 FncErr=1.00D-07 GrdErr=1.00D-06
 Number of steps in this run=  88 maximum allowed number of steps= 108.
 GradGradGradGradGradGradGradGradGradGradGradGradGradGradGradGradGradGrad

                          Input orientation:                          
 ---------------------------------------------------------------------
 Center     Atomic      Atomic             Coordinates (Angstroms)
 Number     Number       Type             X           Y           Z
 ---------------------------------------------------------------------
      1          6           0        0.031248    1.004706    0.668745
      2          6           0       -0.457533    1.537008   -0.504825
      3          6           0       -0.686708    0.739112   -1.616128
      4          6           0       -0.422075   -0.605067   -1.546602
      5          6           0        0.075036   -1.180624   -0.370464
      6          6           0        0.301619   -0.351279    0.750516
      7          1           0        0.201850    1.647511    1.518123
      8          1           0       -1.069645    1.188005   -2.519650
      9          1           0       -0.599447   -1.235240   -2.408021
     10          7           0       -0.734743    2.963347   -0.578343
     11          8           0       -1.172832    3.402022   -1.624033
     12          8           0       -0.512906    3.637771    0.407843
     13          7           0        0.319668   -2.511415   -0.293390
     14          1           0        0.278798   -3.082305   -1.116362
     15          1           0        0.766190   -2.887635    0.524346
     16          6           0        0.811822   -0.926495    1.948993
     17          6           0        1.244912   -1.448558    2.935243
     18          1           0        1.624746   -1.890864    3.824008
 ---------------------------------------------------------------------
                    Distance matrix (angstroms):
                    1          2          3          4          5
     1  C    0.000000
     2  C    1.378231   0.000000
     3  C    2.409699   1.387138   0.000000
     4  C    2.775723   2.382234   1.371744   0.000000
     5  C    2.420237   2.772581   2.411912   1.400602   0.000000
     6  C    1.385093   2.391196   2.786888   2.421754   1.412710
     7  H    1.078770   2.130567   3.382049   3.854339   3.403115
     8  H    3.378081   2.134480   1.079119   2.140391   3.397013
     9  H    3.857671   3.365658   2.129032   1.081952   2.146985
    10  N    2.445045   1.454887   2.454899   3.710643   4.227465
    11  O    3.528989   2.289663   2.706930   4.077547   4.912154
    12  O    2.701333   2.291121   3.539617   4.672235   4.916134
    13  N    3.656775   4.127768   3.650801   2.398934   1.355282
    14  H    4.466716   4.717437   3.973059   2.610180   2.052869
    15  H    3.963750   4.704695   4.454866   3.303168   2.047502
    16  C    2.444968   3.701531   4.210692   3.720887   2.446900
    17  C    3.553660   4.862714   5.406665   4.855642   3.516831
    18  H    4.569381   5.901270   6.469519   5.889500   4.527653
                    6          7          8          9         10
     6  C    0.000000
     7  H    2.143440   0.000000
     8  H    3.865714   4.258105   0.000000
     9  H    3.401420   4.936288   2.470964   0.000000
    10  N    3.718422   2.646470   2.651919   4.581939   0.000000
    11  O    4.679718   3.852429   2.390533   4.737890   1.215659
    12  O    4.085755   2.388458   3.857659   5.628749   1.215163
    13  N    2.399219   4.537855   4.535651   2.635347   5.582652
    14  H    3.308210   5.414572   4.692873   2.418955   6.153588
    15  H    2.588452   4.676925   5.408053   3.632375   6.140254
    16  C    1.423913   2.680153   5.289593   4.590269   4.889802
    17  C    2.620468   3.561158   6.485715   5.656645   5.977393
    18  H    3.683387   4.456662   7.548588   6.649440   6.965002
                   11         12         13         14         15
    11  O    0.000000
    12  O    2.149326   0.000000
    13  N    6.242348   6.244789   0.000000
    14  H    6.664192   6.936095   1.002431   0.000000
    15  H    6.923520   6.650608   1.004796   1.722605   0.000000
    16  C    5.953270   4.996255   2.789708   3.785239   2.424412
    17  C    7.082416   5.945453   3.522757   4.474149   2.848253
    18  H    8.094581   6.841458   4.363631   5.257220   3.552245
                   16         17         18
    16  C    0.000000
    17  C    1.196999   0.000000
    18  H    2.259764   1.062926   0.000000
 Stoichiometry    C8H6N2O2
 Framework group  C1[X(C8H6N2O2)]
 Deg. of freedom    48
 Full point group                 C1      NOp   1
 Largest Abelian subgroup         C1      NOp   1
 Largest concise Abelian subgroup C1      NOp   1
                         Standard orientation:                         
 ---------------------------------------------------------------------
 Center     Atomic      Atomic             Coordinates (Angstroms)
 Number     Number       Type             X           Y           Z
 ---------------------------------------------------------------------
      1          6           0       -0.117337   -0.839846   -0.005015
      2          6           0       -1.148974    0.074066   -0.002058
      3          6           0       -0.900999    1.438856    0.000831
      4          6           0        0.395074    1.888164    0.000827
      5          6           0        1.468485    0.988461   -0.002408
      6          6           0        1.195246   -0.397570   -0.005502
      7          1           0       -0.337499   -1.895911   -0.005957
      8          1           0       -1.731904    2.127397    0.003465
      9          1           0        0.597775    2.950958    0.001362
     10          7           0       -2.523164   -0.403725    0.001226
     11          8           0       -3.411389    0.426245   -0.004508
     12          8           0       -2.708083   -1.604702    0.010270
     13          7           0        2.749725    1.429888   -0.021233
     14          1           0        2.951739    2.403656    0.104599
     15          1           0        3.503042    0.771926    0.074768
     16          6           0        2.280032   -1.319938   -0.003500
     17          6           0        3.219808   -2.061284    0.002346
     18          1           0        4.038690   -2.738959    0.002574
 ---------------------------------------------------------------------
 Rotational constants (GHZ):      1.8888617      0.6344758      0.4749636
 General basis read from cards:  (5D, 7F)
 There are   504 symmetry adapted basis functions of A   symmetry.
 Integral buffers will be    131072 words long.
 Raffenetti 2 integral format.
 Two-electron integral symmetry is turned on.
   504 basis functions,   768 primitive gaussians,   576 cartesian basis functions
    42 alpha electrons       42 beta electrons
       nuclear repulsion energy       633.9062801200 Hartrees.
 NAtoms=   18 NActive=   18 NUniq=   18 SFac= 7.50D-01 NAtFMM=   80 NAOKFM=F Big=F
 One-electron integrals computed using PRISM.
 NBasis=   504 RedAO= T  NBF=   504
 NBsUse=   501 1.00D-06 NBFU=   501
 Harris functional with IExCor=20419 diagonalized for initial guess.
 ExpMin= 4.85D-02 ExpMax= 2.70D+04 ExpMxC= 9.22D+02 IAcc=3 IRadAn=         5 AccDes= 0.00D+00
 HarFok:  IExCor=20419 AccDes= 0.00D+00 IRadAn=         5 IDoV= 1
 ScaDFX=  1.000000  1.000000  1.000000  1.000000
 FoFCou: FMM=F IPFlag=           0 FMFlag=      100000 FMFlg1=           0
         NFxFlg=           0 DoJE=T BraDBF=F KetDBF=T FulRan=T
         Omega=  0.000000  0.000000  1.000000  0.000000  0.000000 ICntrl=     500 IOpCl=  0
         NMat0=    1 NMatS0=    1 NMatT0=    0 NMatD0=    1 NMtDS0=    0 NMtDT0=    0
         I1Cent=           4 NGrid=           0.
 Petite list used in FoFCou.
 Initial guess orbital symmetries:
       Occupied  (A) (A) (A) (A) (A) (A) (A) (A) (A) (A) (A) (A)
                 (A) (A) (A) (A) (A) (A) (A) (A) (A) (A) (A) (A)
                 (A) (A) (A) (A) (A) (A) (A) (A) (A) (A) (A) (A)
                 (A) (A) (A) (A) (A) (A)
       Virtual   (A) (A) (A) (A) (A) (A) (A) (A) (A) (A) (A) (A)
                 (A) (A) (A) (A) (A) (A) (A) (A) (A) (A) (A) (A)
                 (A) (A) (A) (A) (A) (A) (A) (A) (A) (A) (A) (A)
                 (A) (A) (A) (A) (A) (A) (A) (A) (A) (A) (A) (A)
                 (A) (A) (A) (A) (A) (A) (A) (A) (A) (A) (A) (A)
                 (A) (A) (A) (A) (A) (A) (A) (A) (A) (A) (A) (A)
                 (A) (A) (A) (A) (A) (A) (A) (A) (A) (A) (A) (A)
                 (A) (A) (A) (A) (A) (A) (A) (A) (A) (A) (A) (A)
                 (A) (A) (A) (A) (A) (A) (A) (A) (A) (A) (A) (A)
                 (A) (A) (A) (A) (A) (A) (A) (A) (A) (A) (A) (A)
                 (A) (A) (A) (A) (A) (A) (A) (A) (A) (A) (A) (A)
                 (A) (A) (A) (A) (A) (A) (A) (A) (A) (A) (A) (A)
                 (A) (A) (A) (A) (A) (A) (A) (A) (A) (A) (A) (A)
                 (A) (A) (A) (A) (A) (A) (A) (A) (A) (A) (A) (A)
                 (A) (A) (A) (A) (A) (A) (A) (A) (A) (A) (A) (A)
                 (A) (A) (A) (A) (A) (A) (A) (A) (A) (A) (A) (A)
                 (A) (A) (A) (A) (A) (A) (A) (A) (A) (A) (A) (A)
                 (A) (A) (A) (A) (A) (A) (A) (A) (A) (A) (A) (A)
                 (A) (A) (A) (A) (A) (A) (A) (A) (A) (A) (A) (A)
                 (A) (A) (A) (A) (A) (A) (A) (A) (A) (A) (A) (A)
                 (A) (A) (A) (A) (A) (A) (A) (A) (A) (A) (A) (A)
                 (A) (A) (A) (A) (A) (A) (A) (A) (A) (A) (A) (A)
                 (A) (A) (A) (A) (A) (A) (A) (A) (A) (A) (A) (A)
                 (A) (A) (A) (A) (A) (A) (A) (A) (A) (A) (A) (A)
                 (A) (A) (A) (A) (A) (A) (A) (A) (A) (A) (A) (A)
                 (A) (A) (A) (A) (A) (A) (A) (A) (A) (A) (A) (A)
                 (A) (A) (A) (A) (A) (A) (A) (A) (A) (A) (A) (A)
                 (A) (A) (A) (A) (A) (A) (A) (A) (A) (A) (A) (A)
                 (A) (A) (A) (A) (A) (A) (A) (A) (A) (A) (A) (A)
                 (A) (A) (A) (A) (A) (A) (A) (A) (A) (A) (A) (A)
                 (A) (A) (A) (A) (A) (A) (A) (A) (A) (A) (A) (A)
                 (A) (A) (A) (A) (A) (A) (A) (A) (A) (A) (A) (A)
                 (A) (A) (A) (A) (A) (A) (A) (A) (A) (A) (A) (A)
                 (A) (A) (A) (A) (A) (A) (A) (A) (A) (A) (A) (A)
                 (A) (A) (A) (A) (A) (A) (A) (A) (A) (A) (A) (A)
                 (A) (A) (A) (A) (A) (A) (A) (A) (A) (A) (A) (A)
                 (A) (A) (A) (A) (A) (A) (A) (A) (A) (A) (A) (A)
                 (A) (A) (A) (A) (A) (A) (A) (A) (A) (A) (A) (A)
                 (A) (A) (A)
 The electronic state of the initial guess is 1-A.
 FoFJK:  IHMeth= 1 ICntrl=     0 DoSepK=T KAlg= 1 I1Cent= 0 FoldK=F
 Gradient too large for Newton-Raphson -- use scaled steepest descent instead.
 FoFJK:  IHMeth= 1 ICntrl=     0 DoSepK=T KAlg= 1 I1Cent= 0 FoldK=F
 FoFJK:  IHMeth= 1 ICntrl=     0 DoSepK=T KAlg= 1 I1Cent= 0 FoldK=F
 FoFJK:  IHMeth= 1 ICntrl=     0 DoSepK=T KAlg= 1 I1Cent= 0 FoldK=F
 FoFJK:  IHMeth= 1 ICntrl=     0 DoSepK=T KAlg= 1 I1Cent= 0 FoldK=F
 Gradient too large for Newton-Raphson -- use scaled steepest descent instead.
 FoFJK:  IHMeth= 1 ICntrl=     0 DoSepK=T KAlg= 1 I1Cent= 0 FoldK=F
 FoFJK:  IHMeth= 1 ICntrl=     0 DoSepK=T KAlg= 1 I1Cent= 0 FoldK=F
 FoFJK:  IHMeth= 1 ICntrl=     0 DoSepK=T KAlg= 1 I1Cent= 0 FoldK=F
 FoFJK:  IHMeth= 1 ICntrl=     0 DoSepK=T KAlg= 1 I1Cent= 0 FoldK=F
 Gradient too large for Newton-Raphson -- use scaled steepest descent instead.
 FoFJK:  IHMeth= 1 ICntrl=     0 DoSepK=T KAlg= 1 I1Cent= 0 FoldK=F
 FoFJK:  IHMeth= 1 ICntrl=     0 DoSepK=T KAlg= 1 I1Cent= 0 FoldK=F
 FoFJK:  IHMeth= 1 ICntrl=     0 DoSepK=T KAlg= 1 I1Cent= 0 FoldK=F
 Gradient too large for Newton-Raphson -- use scaled steepest descent instead.
 FoFJK:  IHMeth= 1 ICntrl=     0 DoSepK=T KAlg= 1 I1Cent= 0 FoldK=F
 FoFJK:  IHMeth= 1 ICntrl=     0 DoSepK=T KAlg= 1 I1Cent= 0 FoldK=F
 FoFJK:  IHMeth= 1 ICntrl=     0 DoSepK=T KAlg= 1 I1Cent= 0 FoldK=F
 FoFJK:  IHMeth= 1 ICntrl=     0 DoSepK=T KAlg= 1 I1Cent= 0 FoldK=F
 Gradient too large for Newton-Raphson -- use scaled steepest descent instead.
 FoFJK:  IHMeth= 1 ICntrl=     0 DoSepK=T KAlg= 1 I1Cent= 0 FoldK=F
 FoFJK:  IHMeth= 1 ICntrl=     0 DoSepK=T KAlg= 1 I1Cent= 0 FoldK=F
 FoFJK:  IHMeth= 1 ICntrl=     0 DoSepK=T KAlg= 1 I1Cent= 0 FoldK=F
 Gradient too large for Newton-Raphson -- use scaled steepest descent instead.
 FoFJK:  IHMeth= 1 ICntrl=     0 DoSepK=T KAlg= 1 I1Cent= 0 FoldK=F
 FoFJK:  IHMeth= 1 ICntrl=     0 DoSepK=T KAlg= 1 I1Cent= 0 FoldK=F
 FoFJK:  IHMeth= 1 ICntrl=     0 DoSepK=T KAlg= 1 I1Cent= 0 FoldK=F
 FoFJK:  IHMeth= 1 ICntrl=     0 DoSepK=T KAlg= 1 I1Cent= 0 FoldK=F
 LinEq1:  Iter=  0 NonCon=     1 RMS=4.43D-05 Max=2.24D-03
 AX will form     1 AO Fock derivatives at one time.
 FoFJK:  IHMeth= 1 ICntrl=     0 DoSepK=T KAlg= 1 I1Cent= 0 FoldK=F
 LinEq1:  Iter=  1 NonCon=     1 RMS=4.71D-05 Max=4.31D-03
 FoFJK:  IHMeth= 1 ICntrl=     0 DoSepK=T KAlg= 1 I1Cent= 0 FoldK=F
 LinEq1:  Iter=  2 NonCon=     1 RMS=9.94D-06 Max=7.59D-04
 FoFJK:  IHMeth= 1 ICntrl=     0 DoSepK=T KAlg= 1 I1Cent= 0 FoldK=F
 LinEq1:  Iter=  3 NonCon=     1 RMS=8.24D-06 Max=3.54D-04
 FoFJK:  IHMeth= 1 ICntrl=     0 DoSepK=T KAlg= 1 I1Cent= 0 FoldK=F
 LinEq1:  Iter=  4 NonCon=     1 RMS=3.01D-06 Max=1.17D-04
 FoFJK:  IHMeth= 1 ICntrl=     0 DoSepK=T KAlg= 1 I1Cent= 0 FoldK=F
 LinEq1:  Iter=  5 NonCon=     1 RMS=1.67D-06 Max=5.98D-05
 FoFJK:  IHMeth= 1 ICntrl=     0 DoSepK=T KAlg= 1 I1Cent= 0 FoldK=F
 LinEq1:  Iter=  6 NonCon=     1 RMS=4.55D-07 Max=3.20D-05
 FoFJK:  IHMeth= 1 ICntrl=     0 DoSepK=T KAlg= 1 I1Cent= 0 FoldK=F
 LinEq1:  Iter=  7 NonCon=     1 RMS=2.77D-07 Max=9.16D-06
 FoFJK:  IHMeth= 1 ICntrl=     0 DoSepK=T KAlg= 1 I1Cent= 0 FoldK=F
 LinEq1:  Iter=  8 NonCon=     1 RMS=6.83D-08 Max=2.30D-06
 FoFJK:  IHMeth= 1 ICntrl=     0 DoSepK=T KAlg= 1 I1Cent= 0 FoldK=F
 LinEq1:  Iter=  9 NonCon=     1 RMS=4.21D-08 Max=2.28D-06
 FoFJK:  IHMeth= 1 ICntrl=     0 DoSepK=T KAlg= 1 I1Cent= 0 FoldK=F
 LinEq1:  Iter= 10 NonCon=     1 RMS=1.64D-08 Max=4.74D-07
 FoFJK:  IHMeth= 1 ICntrl=     0 DoSepK=T KAlg= 1 I1Cent= 0 FoldK=F
 LinEq1:  Iter= 11 NonCon=     1 RMS=9.12D-09 Max=2.49D-07
 FoFJK:  IHMeth= 1 ICntrl=     0 DoSepK=T KAlg= 1 I1Cent= 0 FoldK=F
 LinEq1:  Iter= 12 NonCon=     0 RMS=2.12D-09 Max=6.72D-08
 Linear equations converged to 1.964D-08 1.964D-07 after    12 iterations.
 FoFJK:  IHMeth= 1 ICntrl=     0 DoSepK=T KAlg= 1 I1Cent= 0 FoldK=F
 FoFJK:  IHMeth= 1 ICntrl=     0 DoSepK=T KAlg= 1 I1Cent= 0 FoldK=F
 FoFJK:  IHMeth= 1 ICntrl=     0 DoSepK=T KAlg= 1 I1Cent= 0 FoldK=F
 LinEq1:  Iter=  0 NonCon=     1 RMS=1.71D-07 Max=8.15D-06
 FoFJK:  IHMeth= 1 ICntrl=     0 DoSepK=T KAlg= 1 I1Cent= 0 FoldK=F
 LinEq1:  Iter=  1 NonCon=     1 RMS=8.30D-08 Max=4.52D-06
 FoFJK:  IHMeth= 1 ICntrl=     0 DoSepK=T KAlg= 1 I1Cent= 0 FoldK=F
 LinEq1:  Iter=  2 NonCon=     1 RMS=3.07D-08 Max=1.11D-06
 FoFJK:  IHMeth= 1 ICntrl=     0 DoSepK=T KAlg= 1 I1Cent= 0 FoldK=F
 LinEq1:  Iter=  3 NonCon=     1 RMS=1.70D-08 Max=6.14D-07
 FoFJK:  IHMeth= 1 ICntrl=     0 DoSepK=T KAlg= 1 I1Cent= 0 FoldK=F
 LinEq1:  Iter=  4 NonCon=     1 RMS=1.15D-08 Max=7.44D-07
 FoFJK:  IHMeth= 1 ICntrl=     0 DoSepK=T KAlg= 1 I1Cent= 0 FoldK=F
 LinEq1:  Iter=  5 NonCon=     1 RMS=6.08D-09 Max=3.32D-07
 FoFJK:  IHMeth= 1 ICntrl=     0 DoSepK=T KAlg= 1 I1Cent= 0 FoldK=F
 LinEq1:  Iter=  6 NonCon=     1 RMS=6.17D-09 Max=4.29D-07
 FoFJK:  IHMeth= 1 ICntrl=     0 DoSepK=T KAlg= 1 I1Cent= 0 FoldK=F
 LinEq1:  Iter=  7 NonCon=     1 RMS=2.31D-09 Max=1.05D-07
 FoFJK:  IHMeth= 1 ICntrl=     0 DoSepK=T KAlg= 1 I1Cent= 0 FoldK=F
 LinEq1:  Iter=  8 NonCon=     1 RMS=1.72D-09 Max=6.93D-08
 FoFJK:  IHMeth= 1 ICntrl=     0 DoSepK=T KAlg= 1 I1Cent= 0 FoldK=F
 LinEq1:  Iter=  9 NonCon=     1 RMS=8.51D-10 Max=4.82D-08
 FoFJK:  IHMeth= 1 ICntrl=     0 DoSepK=T KAlg= 1 I1Cent= 0 FoldK=F
 LinEq1:  Iter= 10 NonCon=     1 RMS=4.89D-10 Max=1.82D-08
 FoFJK:  IHMeth= 1 ICntrl=     0 DoSepK=T KAlg= 1 I1Cent= 0 FoldK=F
 LinEq1:  Iter= 11 NonCon=     1 RMS=2.06D-10 Max=1.16D-08
 FoFJK:  IHMeth= 1 ICntrl=     0 DoSepK=T KAlg= 1 I1Cent= 0 FoldK=F
 LinEq1:  Iter= 12 NonCon=     1 RMS=1.20D-10 Max=5.16D-09
 FoFJK:  IHMeth= 1 ICntrl=     0 DoSepK=T KAlg= 1 I1Cent= 0 FoldK=F
 LinEq1:  Iter= 13 NonCon=     0 RMS=4.44D-11 Max=1.14D-09
 Linear equations converged to 2.685D-10 2.685D-09 after    13 iterations.
 FoFJK:  IHMeth= 1 ICntrl=     0 DoSepK=T KAlg= 1 I1Cent= 0 FoldK=F
 SCF Done:  E(RCAM-B3LYP) =  -568.221974823     a.u. after    9 cycles
            Convg  =    0.7187D-08                    52 Fock formations.
              S**2 =  0.0000                  -V/T =  2.0039

 **********************************************************************

            Population analysis using the SCF density.

 **********************************************************************

 Orbital symmetries:
       Occupied  (A) (A) (A) (A) (A) (A) (A) (A) (A) (A) (A) (A)
                 (A) (A) (A) (A) (A) (A) (A) (A) (A) (A) (A) (A)
                 (A) (A) (A) (A) (A) (A) (A) (A) (A) (A) (A) (A)
                 (A) (A) (A) (A) (A) (A)
       Virtual   (A) (A) (A) (A) (A) (A) (A) (A) (A) (A) (A) (A)
                 (A) (A) (A) (A) (A) (A) (A) (A) (A) (A) (A) (A)
                 (A) (A) (A) (A) (A) (A) (A) (A) (A) (A) (A) (A)
                 (A) (A) (A) (A) (A) (A) (A) (A) (A) (A) (A) (A)
                 (A) (A) (A) (A) (A) (A) (A) (A) (A) (A) (A) (A)
                 (A) (A) (A) (A) (A) (A) (A) (A) (A) (A) (A) (A)
                 (A) (A) (A) (A) (A) (A) (A) (A) (A) (A) (A) (A)
                 (A) (A) (A) (A) (A) (A) (A) (A) (A) (A) (A) (A)
                 (A) (A) (A) (A) (A) (A) (A) (A) (A) (A) (A) (A)
                 (A) (A) (A) (A) (A) (A) (A) (A) (A) (A) (A) (A)
                 (A) (A) (A) (A) (A) (A) (A) (A) (A) (A) (A) (A)
                 (A) (A) (A) (A) (A) (A) (A) (A) (A) (A) (A) (A)
                 (A) (A) (A) (A) (A) (A) (A) (A) (A) (A) (A) (A)
                 (A) (A) (A) (A) (A) (A) (A) (A) (A) (A) (A) (A)
                 (A) (A) (A) (A) (A) (A) (A) (A) (A) (A) (A) (A)
                 (A) (A) (A) (A) (A) (A) (A) (A) (A) (A) (A) (A)
                 (A) (A) (A) (A) (A) (A) (A) (A) (A) (A) (A) (A)
                 (A) (A) (A) (A) (A) (A) (A) (A) (A) (A) (A) (A)
                 (A) (A) (A) (A) (A) (A) (A) (A) (A) (A) (A) (A)
                 (A) (A) (A) (A) (A) (A) (A) (A) (A) (A) (A) (A)
                 (A) (A) (A) (A) (A) (A) (A) (A) (A) (A) (A) (A)
                 (A) (A) (A) (A) (A) (A) (A) (A) (A) (A) (A) (A)
                 (A) (A) (A) (A) (A) (A) (A) (A) (A) (A) (A) (A)
                 (A) (A) (A) (A) (A) (A) (A) (A) (A) (A) (A) (A)
                 (A) (A) (A) (A) (A) (A) (A) (A) (A) (A) (A) (A)
                 (A) (A) (A) (A) (A) (A) (A) (A) (A) (A) (A) (A)
                 (A) (A) (A) (A) (A) (A) (A) (A) (A) (A) (A) (A)
                 (A) (A) (A) (A) (A) (A) (A) (A) (A) (A) (A) (A)
                 (A) (A) (A) (A) (A) (A) (A) (A) (A) (A) (A) (A)
                 (A) (A) (A) (A) (A) (A) (A) (A) (A) (A) (A) (A)
                 (A) (A) (A) (A) (A) (A) (A) (A) (A) (A) (A) (A)
                 (A) (A) (A) (A) (A) (A) (A) (A) (A) (A) (A) (A)
                 (A) (A) (A) (A) (A) (A) (A) (A) (A) (A) (A) (A)
                 (A) (A) (A) (A) (A) (A) (A) (A) (A) (A) (A) (A)
                 (A) (A) (A) (A) (A) (A) (A) (A) (A) (A) (A) (A)
                 (A) (A) (A) (A) (A) (A) (A) (A) (A) (A) (A) (A)
                 (A) (A) (A) (A) (A) (A) (A) (A) (A) (A) (A) (A)
                 (A) (A) (A) (A) (A) (A) (A) (A) (A) (A) (A) (A)
                 (A) (A) (A)
 The electronic state is 1-A.
 Alpha  occ. eigenvalues --  -19.22781 -19.22771 -14.63006 -14.42904 -10.33291
 Alpha  occ. eigenvalues --  -10.30395 -10.29393 -10.28476 -10.28253 -10.27234
 Alpha  occ. eigenvalues --  -10.27193 -10.26209  -1.32059  -1.14044  -1.04977
 Alpha  occ. eigenvalues --   -0.97630  -0.90316  -0.87852  -0.83786  -0.77917
 Alpha  occ. eigenvalues --   -0.74130  -0.69723  -0.65257  -0.63340  -0.61878
 Alpha  occ. eigenvalues --   -0.61741  -0.61671  -0.58546  -0.56401  -0.54047
 Alpha  occ. eigenvalues --   -0.52948  -0.50734  -0.50187  -0.44946  -0.41977
 Alpha  occ. eigenvalues --   -0.40481  -0.38367  -0.37818  -0.37015  -0.36355
 Alpha  occ. eigenvalues --   -0.32773  -0.28882
 Alpha virt. eigenvalues --   -0.04157  -0.01376   0.01663   0.03642   0.04119
 Alpha virt. eigenvalues --    0.04290   0.05645   0.05814   0.07100   0.07317
 Alpha virt. eigenvalues --    0.08480   0.09813   0.10685   0.10877   0.10977
 Alpha virt. eigenvalues --    0.11883   0.12767   0.13784   0.14266   0.14785
 Alpha virt. eigenvalues --    0.15239   0.16163   0.16420   0.17228   0.18268
 Alpha virt. eigenvalues --    0.18518   0.18967   0.19674   0.19868   0.20715
 Alpha virt. eigenvalues --    0.21083   0.21499   0.22917   0.22994   0.23782
 Alpha virt. eigenvalues --    0.24041   0.24445   0.24894   0.25113   0.26507
 Alpha virt. eigenvalues --    0.26746   0.27167   0.27437   0.27714   0.27899
 Alpha virt. eigenvalues --    0.27995   0.28911   0.30025   0.30338   0.30561
 Alpha virt. eigenvalues --    0.30878   0.31187   0.31486   0.31825   0.32968
 Alpha virt. eigenvalues --    0.33141   0.33546   0.34427   0.34875   0.36129
 Alpha virt. eigenvalues --    0.36289   0.36357   0.37198   0.37477   0.37945
 Alpha virt. eigenvalues --    0.38220   0.39234   0.39448   0.40092   0.41734
 Alpha virt. eigenvalues --    0.41806   0.42111   0.42312   0.43757   0.44212
 Alpha virt. eigenvalues --    0.44302   0.44666   0.46095   0.46425   0.47012
 Alpha virt. eigenvalues --    0.47488   0.47621   0.47838   0.48084   0.48987
 Alpha virt. eigenvalues --    0.49278   0.50186   0.51921   0.52118   0.53120
 Alpha virt. eigenvalues --    0.53679   0.53934   0.54060   0.55325   0.55795
 Alpha virt. eigenvalues --    0.56250   0.57073   0.58346   0.58490   0.58775
 Alpha virt. eigenvalues --    0.59316   0.59761   0.60094   0.60514   0.60824
 Alpha virt. eigenvalues --    0.62098   0.62354   0.62979   0.63774   0.64262
 Alpha virt. eigenvalues --    0.64987   0.65772   0.65899   0.66392   0.67240
 Alpha virt. eigenvalues --    0.67696   0.67813   0.68424   0.69328   0.69504
 Alpha virt. eigenvalues --    0.70422   0.71294   0.71662   0.71895   0.72894
 Alpha virt. eigenvalues --    0.73543   0.74000   0.74302   0.75330   0.75602
 Alpha virt. eigenvalues --    0.76532   0.77660   0.77882   0.78383   0.79093
 Alpha virt. eigenvalues --    0.79667   0.80044   0.80853   0.81011   0.81328
 Alpha virt. eigenvalues --    0.82040   0.82791   0.83357   0.85534   0.86317
 Alpha virt. eigenvalues --    0.87384   0.88301   0.88681   0.89227   0.89344
 Alpha virt. eigenvalues --    0.89715   0.91788   0.92694   0.94296   0.95133
 Alpha virt. eigenvalues --    0.96167   0.97356   0.99470   0.99868   1.00363
 Alpha virt. eigenvalues --    1.01489   1.01544   1.02198   1.03033   1.03210
 Alpha virt. eigenvalues --    1.03760   1.05739   1.06723   1.07662   1.08314
 Alpha virt. eigenvalues --    1.08696   1.11007   1.12370   1.12970   1.14963
 Alpha virt. eigenvalues --    1.15749   1.17833   1.18222   1.20101   1.20578
 Alpha virt. eigenvalues --    1.21230   1.23243   1.23857   1.25957   1.27310
 Alpha virt. eigenvalues --    1.31258   1.32059   1.34248   1.36179   1.36924
 Alpha virt. eigenvalues --    1.38734   1.39720   1.40661   1.43205   1.43479
 Alpha virt. eigenvalues --    1.44263   1.46453   1.48348   1.49589   1.51745
 Alpha virt. eigenvalues --    1.53480   1.54571   1.55027   1.56899   1.57104
 Alpha virt. eigenvalues --    1.59155   1.59314   1.62558   1.65424   1.66839
 Alpha virt. eigenvalues --    1.69538   1.71965   1.72476   1.73336   1.75598
 Alpha virt. eigenvalues --    1.76739   1.76787   1.81349   1.81480   1.82262
 Alpha virt. eigenvalues --    1.84348   1.85352   1.86648   1.87212   1.88447
 Alpha virt. eigenvalues --    1.90341   1.90816   1.91858   1.92462   1.93601
 Alpha virt. eigenvalues --    1.95215   1.96345   1.98202   1.98457   1.99442
 Alpha virt. eigenvalues --    2.00737   2.01601   2.02779   2.03010   2.06328
 Alpha virt. eigenvalues --    2.09026   2.10952   2.11246   2.13418   2.15501
 Alpha virt. eigenvalues --    2.19834   2.21113   2.22983   2.24689   2.26228
 Alpha virt. eigenvalues --    2.27475   2.30692   2.33543   2.34708   2.35324
 Alpha virt. eigenvalues --    2.35610   2.38374   2.39177   2.40271   2.43412
 Alpha virt. eigenvalues --    2.44069   2.45192   2.47006   2.48059   2.49746
 Alpha virt. eigenvalues --    2.52803   2.55819   2.56808   2.59913   2.62397
 Alpha virt. eigenvalues --    2.62757   2.63531   2.66542   2.67779   2.68243
 Alpha virt. eigenvalues --    2.68904   2.71914   2.72333   2.73460   2.75944
 Alpha virt. eigenvalues --    2.81141   2.83185   2.85220   2.85859   2.86357
 Alpha virt. eigenvalues --    2.88229   2.89414   2.90245   2.91147   2.92231
 Alpha virt. eigenvalues --    2.94327   2.95585   2.95646   2.97744   3.00575
 Alpha virt. eigenvalues --    3.00965   3.01285   3.02168   3.02941   3.03235
 Alpha virt. eigenvalues --    3.06849   3.08378   3.10229   3.11425   3.12525
 Alpha virt. eigenvalues --    3.13648   3.14996   3.15978   3.16403   3.16993
 Alpha virt. eigenvalues --    3.18438   3.20046   3.21207   3.22357   3.23831
 Alpha virt. eigenvalues --    3.24409   3.25116   3.27141   3.28162   3.29207
 Alpha virt. eigenvalues --    3.32752   3.34080   3.35670   3.36293   3.38792
 Alpha virt. eigenvalues --    3.39593   3.40718   3.41458   3.41691   3.44273
 Alpha virt. eigenvalues --    3.47155   3.48072   3.49051   3.51113   3.52220
 Alpha virt. eigenvalues --    3.54357   3.54630   3.55611   3.56923   3.58086
 Alpha virt. eigenvalues --    3.58932   3.60308   3.62620   3.63242   3.63546
 Alpha virt. eigenvalues --    3.65876   3.67970   3.69796   3.70990   3.72544
 Alpha virt. eigenvalues --    3.74748   3.77785   3.79864   3.81233   3.86712
 Alpha virt. eigenvalues --    3.89761   3.93083   3.94827   3.97635   3.98788
 Alpha virt. eigenvalues --    4.03140   4.06564   4.09475   4.12764   4.13313
 Alpha virt. eigenvalues --    4.14512   4.18153   4.20032   4.22750   4.23942
 Alpha virt. eigenvalues --    4.25837   4.26503   4.31756   4.32958   4.34230
 Alpha virt. eigenvalues --    4.35955   4.39580   4.39904   4.41893   4.46307
 Alpha virt. eigenvalues --    4.47960   4.49869   4.53882   4.62892   4.66491
 Alpha virt. eigenvalues --    4.67288   4.76597   4.77110   4.79180   4.79716
 Alpha virt. eigenvalues --    4.82704   4.84760   4.87370   4.89571   4.90230
 Alpha virt. eigenvalues --    4.93380   4.94170   4.96275   4.99105   5.03675
 Alpha virt. eigenvalues --    5.07536   5.09990   5.13366   5.16879   5.18436
 Alpha virt. eigenvalues --    5.21212   5.22462   5.23744   5.24404   5.29085
 Alpha virt. eigenvalues --    5.30622   5.31375   5.34194   5.40106   5.41853
 Alpha virt. eigenvalues --    5.43878   5.46433   5.48771   5.56912   5.59377
 Alpha virt. eigenvalues --    5.61935   5.65547   5.69889   5.72574   5.74968
 Alpha virt. eigenvalues --    5.79695   5.82836   5.92459   6.00487   6.12272
 Alpha virt. eigenvalues --    6.19114   6.22930   6.45481   6.46506   6.53608
 Alpha virt. eigenvalues --    6.60220   6.62374   6.64526   6.95262   6.96476
 Alpha virt. eigenvalues --    6.99761   7.14075   7.33331   7.47269   7.58473
 Alpha virt. eigenvalues --    7.80642   7.83343  22.72252  22.75716  22.99854
 Alpha virt. eigenvalues --   23.03881  23.16812  23.30009  23.65611  24.17953
 Alpha virt. eigenvalues --   32.51620  32.88912  44.48818  44.68752
          Condensed to atoms (all electrons):
              1          2          3          4          5          6
     1  C    7.255777   0.149929  -0.215918   0.091032  -0.575377   0.301367
     2  C    0.149929   6.050828   0.353574  -0.125963   0.199367  -0.317445
     3  C   -0.215918   0.353574   6.232165   0.127338  -0.254361  -0.020285
     4  C    0.091032  -0.125963   0.127338   6.949646  -0.391987  -0.561368
     5  C   -0.575377   0.199367  -0.254361  -0.391987   7.612356  -0.447679
     6  C    0.301367  -0.317445  -0.020285  -0.561368  -0.447679   8.885106
     7  H    0.227430  -0.071290   0.012100   0.003168   0.028770  -0.028669
     8  H   -0.001772  -0.094570   0.319670  -0.059633   0.019849  -0.009184
     9  H   -0.007761   0.015645  -0.046818   0.474018  -0.254805  -0.013519
    10  N   -0.160206   0.510993  -0.226981  -0.009086  -0.001660  -0.003273
    11  O    0.025077  -0.093209   0.016146   0.013204  -0.004711  -0.013427
    12  O   -0.050079  -0.052087   0.026659  -0.005240  -0.003345   0.040022
    13  N   -0.011582   0.007724  -0.005841  -0.064636   0.154881  -0.056861
    14  H    0.001677   0.004084  -0.000583   0.049608  -0.084019  -0.011383
    15  H   -0.007736  -0.001414   0.002279  -0.030969   0.019878  -0.087348
    16  C   -0.529799  -0.225195   0.023531   0.094923  -0.399816  -2.124658
    17  C   -0.029880  -0.015267   0.001150  -0.002771  -0.052522  -0.491484
    18  H   -0.001685  -0.000790   0.000109   0.000064  -0.002876  -0.028692
              7          8          9         10         11         12
     1  C    0.227430  -0.001772  -0.007761  -0.160206   0.025077  -0.050079
     2  C   -0.071290  -0.094570   0.015645   0.510993  -0.093209  -0.052087
     3  C    0.012100   0.319670  -0.046818  -0.226981   0.016146   0.026659
     4  C    0.003168  -0.059633   0.474018  -0.009086   0.013204  -0.005240
     5  C    0.028770   0.019849  -0.254805  -0.001660  -0.004711  -0.003345
     6  C   -0.028669  -0.009184  -0.013519  -0.003273  -0.013427   0.040022
     7  H    0.369549   0.000621  -0.000459   0.003233  -0.002664  -0.006095
     8  H    0.000621   0.385722  -0.004879   0.004406  -0.000374  -0.002421
     9  H   -0.000459  -0.004879   0.527601  -0.000887   0.000734   0.000048
    10  N    0.003233   0.004406  -0.000887   5.797884   0.083470   0.093797
    11  O   -0.002664  -0.000374   0.000734   0.083470   8.676117  -0.109331
    12  O   -0.006095  -0.002421   0.000048   0.093797  -0.109331   8.662536
    13  N   -0.000496  -0.000458   0.015859  -0.000091   0.000024   0.000188
    14  H    0.000024  -0.000119   0.018290  -0.000038   0.000032  -0.000011
    15  H   -0.000629   0.000066  -0.003748   0.000012   0.000004   0.000038
    16  C   -0.016468   0.000676   0.006221  -0.000571   0.001677  -0.009598
    17  C   -0.009475  -0.000023   0.000086  -0.000008  -0.000012  -0.000009
    18  H   -0.001060   0.000001   0.000003   0.000019  -0.000002   0.000026
             13         14         15         16         17         18
     1  C   -0.011582   0.001677  -0.007736  -0.529799  -0.029880  -0.001685
     2  C    0.007724   0.004084  -0.001414  -0.225195  -0.015267  -0.000790
     3  C   -0.005841  -0.000583   0.002279   0.023531   0.001150   0.000109
     4  C   -0.064636   0.049608  -0.030969   0.094923  -0.002771   0.000064
     5  C    0.154881  -0.084019   0.019878  -0.399816  -0.052522  -0.002876
     6  C   -0.056861  -0.011383  -0.087348  -2.124658  -0.491484  -0.028692
     7  H   -0.000496   0.000024  -0.000629  -0.016468  -0.009475  -0.001060
     8  H   -0.000458  -0.000119   0.000066   0.000676  -0.000023   0.000001
     9  H    0.015859   0.018290  -0.003748   0.006221   0.000086   0.000003
    10  N   -0.000091  -0.000038   0.000012  -0.000571  -0.000008   0.000019
    11  O    0.000024   0.000032   0.000004   0.001677  -0.000012  -0.000002
    12  O    0.000188  -0.000011   0.000038  -0.009598  -0.000009   0.000026
    13  N    6.455490   0.412278   0.416581   0.024206   0.009773   0.001136
    14  H    0.412278   0.536304  -0.070595  -0.009187  -0.003727  -0.000190
    15  H    0.416581  -0.070595   0.506675   0.057093   0.017510   0.001112
    16  C    0.024206  -0.009187   0.057093   8.355799   1.325972   0.005297
    17  C    0.009773  -0.003727   0.017510   1.325972   5.537427   0.285732
    18  H    0.001136  -0.000190   0.001112   0.005297   0.285732   0.286275
 Mulliken atomic charges:
              1
     1  C   -0.460494
     2  C   -0.294913
     3  C   -0.343932
     4  C   -0.551348
     5  C    0.438057
     6  C    0.988779
     7  H    0.492411
     8  H    0.442422
     9  H    0.274371
    10  N    0.908985
    11  O   -0.592755
    12  O   -0.585097
    13  N   -0.358176
    14  H    0.157555
    15  H    0.181192
    16  C   -0.580104
    17  C   -0.572472
    18  H    0.455521
 Sum of Mulliken atomic charges =   0.00000
 Mulliken charges with hydrogens summed into heavy atoms:
              1
     1  C    0.031918
     2  C   -0.294913
     3  C    0.098489
     4  C   -0.276977
     5  C    0.438057
     6  C    0.988779
    10  N    0.908985
    11  O   -0.592755
    12  O   -0.585097
    13  N   -0.019430
    16  C   -0.580104
    17  C   -0.116952
 Sum of Mulliken charges with hydrogens summed into heavy atoms =   0.00000
 Electronic spatial extent (au):  <R**2>=           2179.3804
 Charge=              0.0000 electrons
 Dipole moment (field-independent basis, Debye):
    X=              6.4040    Y=              2.6883    Z=              0.2958  Tot=              6.9517
 Quadrupole moment (field-independent basis, Debye-Ang):
   XX=            -71.8186   YY=            -60.8013   ZZ=            -71.4129
   XY=             -1.8575   XZ=              1.1180   YZ=              0.6706
 Traceless Quadrupole moment (field-independent basis, Debye-Ang):
   XX=             -3.8077   YY=              7.2096   ZZ=             -3.4019
   XY=             -1.8575   XZ=              1.1180   YZ=              0.6706
 Octapole moment (field-independent basis, Debye-Ang**2):
  XXX=             98.0998  YYY=             20.9520  ZZZ=              0.1966  XYY=             27.3744
  XXY=              5.4970  XXZ=              3.7774  XZZ=            -16.7631  YZZ=             -1.1857
  YYZ=              1.2358  XYZ=              1.9396
 Hexadecapole moment (field-independent basis, Debye-Ang**3):
 XXXX=          -1979.5686 YYYY=           -690.6718 ZZZZ=            -76.7711 XXXY=            -47.6580
 XXXZ=             13.1581 YYYX=              1.0675 YYYZ=              3.4040 ZZZX=              0.6658
 ZZZY=              0.3779 XXYY=           -373.2187 XXZZ=           -362.0723 YYZZ=           -156.3407
 XXYZ=              6.9140 YYXZ=              4.3364 ZZXY=             13.1304
 N-N= 6.339062801200D+02 E-N=-2.594194880518D+03  KE= 5.660032498047D+02
 Calling FoFJK, ICntrl=      2127 FMM=F ISym2X=0 I1Cent= 0 IOpClX= 0 NMat=1 NMatS=1 NMatT=0.
 FoFJK:  IHMeth= 1 ICntrl=  2127 DoSepK=T KAlg= 1 I1Cent= 0 FoldK=F
 ***** Axes restored to original set *****
 -------------------------------------------------------------------
 Center     Atomic                   Forces (Hartrees/Bohr)
 Number     Number              X              Y              Z
 -------------------------------------------------------------------
      1        6          -0.000070153   -0.000052060   -0.000070730
      2        6          -0.000051271    0.000117380   -0.000160255
      3        6           0.000037468   -0.000016119    0.000066332
      4        6           0.000056069   -0.000013438   -0.000034685
      5        6          -0.000049863   -0.000054545    0.000044950
      6        6          -0.000050207    0.000014066   -0.000207876
      7        1           0.000064454    0.000126077    0.000133370
      8        1          -0.000063262    0.000084886   -0.000140557
      9        1          -0.000048596   -0.000078775   -0.000131807
     10        7          -0.000004116    0.000175448    0.000020581
     11        8          -0.000034761    0.000143174   -0.000069045
     12        8          -0.000118315    0.000176637   -0.000019850
     13        7          -0.000062173   -0.000136329   -0.000160962
     14        1          -0.000013528   -0.000159981   -0.000110794
     15        1           0.000052663   -0.000118104    0.000061041
     16        6           0.000220313    0.000115896    0.000273701
     17        6           0.000032584   -0.000290367    0.000381496
     18        1           0.000102693   -0.000033845    0.000125089
 -------------------------------------------------------------------
 Cartesian Forces:  Max     0.000381496 RMS     0.000123134

 GradGradGradGradGradGradGradGradGradGradGradGradGradGradGradGradGradGrad
 Berny optimization.
 Internal  Forces:  Max     0.000868363 RMS     0.000210106
 Search for a local minimum.
 Step number   1 out of a maximum of   88
 All quantities printed in internal units (Hartrees-Bohrs-Radians)
 Mixed Optimization -- En-DIIS/RFO-DIIS
 Second derivative matrix not updated -- first step.
     Eigenvalues ---    0.00593   0.00593   0.00966   0.00966   0.01901
     Eigenvalues ---    0.02027   0.02110   0.02131   0.02256   0.02283
     Eigenvalues ---    0.02296   0.02321   0.02339   0.02380   0.02530
     Eigenvalues ---    0.04774   0.04774   0.16000   0.16000   0.16000
     Eigenvalues ---    0.16000   0.16000   0.22367   0.23495   0.24602
     Eigenvalues ---    0.24997   0.25000   0.25000   0.25000   0.25000
     Eigenvalues ---    0.35759   0.36101   0.36143   0.37612   0.38139
     Eigenvalues ---    0.41499   0.41877   0.43126   0.45999   0.46855
     Eigenvalues ---    0.47228   0.47263   0.48758   0.50000   0.53913
     Eigenvalues ---    0.97333   0.97559   1.063461000.000001000.00000
     Eigenvalues --- 1000.000001000.000001000.000001000.000001000.00000
     Eigenvalues --- 1000.000001000.000001000.000001000.000001000.00000
     Eigenvalues --- 1000.000001000.000001000.000001000.000001000.00000
     Eigenvalues --- 1000.000001000.000001000.000001000.000001000.00000
     Eigenvalues --- 1000.000001000.000001000.000001000.000001000.00000
     Eigenvalues --- 1000.000001000.000001000.00000
 RFO step:  Lambda=-1.30320548D-05 EMin= 5.92964441D-03
 Linear search not attempted -- first point.
 Iteration  1 RMS(Cart)=  0.00503219 RMS(Int)=  0.00003686
 Iteration  2 RMS(Cart)=  0.00003784 RMS(Int)=  0.00000133
 Iteration  3 RMS(Cart)=  0.00000000 RMS(Int)=  0.00000133
 Variable       Old X    -DE/DX   Delta X   Delta X   Delta X     New X
                                 (Linear)    (Quad)   (Total)
    R1        2.60448   0.00045   0.00000   0.00091   0.00091   2.60539
    R2        2.61745   0.00056   0.00000   0.00121   0.00121   2.61866
    R3        2.03858   0.00019   0.00000   0.00053   0.00053   2.03911
    R4        2.62131   0.00010   0.00000   0.00018   0.00018   2.62149
    R5        2.74934   0.00052   0.00000   0.00138   0.00138   2.75072
    R6        2.59222   0.00024   0.00000   0.00043   0.00043   2.59265
    R7        2.03924   0.00018   0.00000   0.00049   0.00049   2.03973
    R8        2.64675   0.00026   0.00000   0.00056   0.00056   2.64732
    R9        2.04459   0.00016   0.00000   0.00044   0.00044   2.04504
   R10        2.66964   0.00053   0.00000   0.00124   0.00124   2.67087
   R11        2.56111   0.00039   0.00000   0.00072   0.00072   2.56184
   R12        2.69081   0.00087   0.00000   0.00207   0.00207   2.69288
   R13        2.29726   0.00012   0.00000   0.00013   0.00013   2.29739
   R14        2.29633   0.00006   0.00000   0.00006   0.00006   2.29639
   R15        1.89432   0.00018   0.00000   0.00039   0.00039   1.89471
   R16        1.89879   0.00012   0.00000   0.00025   0.00025   1.89904
   R17        2.26200   0.00061   0.00000   0.00057   0.00057   2.26257
   R18        2.00864   0.00016   0.00000   0.00041   0.00041   2.00905
    A1        2.09163   0.00021   0.00000   0.00102   0.00102   2.09265
    A2        2.09023  -0.00011   0.00000  -0.00056  -0.00056   2.08967
    A3        2.10133  -0.00010   0.00000  -0.00046  -0.00046   2.10086
    A4        2.11603  -0.00021   0.00000  -0.00092  -0.00092   2.11511
    A5        2.08202   0.00028   0.00000   0.00116   0.00116   2.08318
    A6        2.08514  -0.00007   0.00000  -0.00024  -0.00024   2.08490
    A7        2.08423   0.00012   0.00000   0.00035   0.00035   2.08458
    A8        2.08304  -0.00007   0.00000  -0.00026  -0.00026   2.08278
    A9        2.11591  -0.00005   0.00000  -0.00009  -0.00009   2.11583
   A10        2.11030   0.00018   0.00000   0.00065   0.00065   2.11095
   A11        2.09296  -0.00011   0.00000  -0.00046  -0.00046   2.09250
   A12        2.07992  -0.00007   0.00000  -0.00019  -0.00019   2.07973
   A13        2.07374  -0.00011   0.00000  -0.00043  -0.00043   2.07331
   A14        2.11219  -0.00029   0.00000  -0.00115  -0.00115   2.11104
   A15        2.09714   0.00040   0.00000   0.00159   0.00159   2.09873
   A16        2.09044  -0.00019   0.00000  -0.00066  -0.00067   2.08977
   A17        2.11193  -0.00007   0.00000  -0.00033  -0.00033   2.11161
   A18        2.08080   0.00026   0.00000   0.00100   0.00100   2.08180
   A19        2.05545   0.00002   0.00000   0.00006   0.00006   2.05551
   A20        2.05819   0.00021   0.00000   0.00084   0.00084   2.05903
   A21        2.16955  -0.00023   0.00000  -0.00090  -0.00091   2.16863
   A22        2.10037   0.00003   0.00000   0.00031   0.00031   2.10068
   A23        2.08766   0.00007   0.00000   0.00051   0.00051   2.08817
   A24        2.06351  -0.00009   0.00000  -0.00048  -0.00048   2.06303
   A25        3.16666   0.00006   0.00000   0.01065   0.01065   3.17731
   A26        3.15149  -0.00009   0.00000  -0.01575  -0.01575   3.13574
   A27        3.10482  -0.00007   0.00000  -0.00137  -0.00137   3.10345
   A28        3.13532   0.00006   0.00000   0.00117   0.00117   3.13648
    D1       -0.00031  -0.00002   0.00000  -0.00055  -0.00055  -0.00086
    D2       -3.13938  -0.00003   0.00000  -0.00147  -0.00147  -3.14085
    D3        3.14024  -0.00003   0.00000  -0.00110  -0.00110   3.13914
    D4        0.00116  -0.00004   0.00000  -0.00201  -0.00201  -0.00085
    D5        0.00045  -0.00003   0.00000  -0.00128  -0.00128  -0.00083
    D6        3.13747   0.00000   0.00000   0.00000  -0.00001   3.13746
    D7       -3.14009  -0.00001   0.00000  -0.00074  -0.00074  -3.14082
    D8       -0.00307   0.00001   0.00000   0.00054   0.00054  -0.00253
    D9       -0.00007   0.00003   0.00000   0.00137   0.00137   0.00130
   D10       -3.14121   0.00000   0.00000   0.00002   0.00002  -3.14119
   D11        3.13900   0.00005   0.00000   0.00229   0.00228   3.14129
   D12       -0.00214   0.00002   0.00000   0.00094   0.00094  -0.00120
   D13       -3.13388   0.00000   0.00000  -0.00094  -0.00094  -3.13482
   D14        0.00842  -0.00007   0.00000  -0.00742  -0.00742   0.00100
   D15        0.01019  -0.00002   0.00000  -0.00184  -0.00184   0.00835
   D16       -3.13070  -0.00008   0.00000  -0.00832  -0.00832  -3.13902
   D17        0.00030  -0.00001   0.00000  -0.00032  -0.00032  -0.00002
   D18        3.13977  -0.00003   0.00000  -0.00150  -0.00150   3.13827
   D19        3.14143   0.00002   0.00000   0.00105   0.00105  -3.14070
   D20       -0.00228   0.00000   0.00000  -0.00013  -0.00013  -0.00241
   D21       -0.00015  -0.00003   0.00000  -0.00148  -0.00148  -0.00163
   D22        3.12539  -0.00002   0.00000  -0.00136  -0.00136   3.12403
   D23       -3.13964  -0.00001   0.00000  -0.00030  -0.00030  -3.13994
   D24       -0.01410   0.00000   0.00000  -0.00019  -0.00019  -0.01428
   D25       -0.00023   0.00005   0.00000   0.00227   0.00227   0.00205
   D26       -3.13733   0.00002   0.00000   0.00102   0.00102  -3.13630
   D27       -3.12591   0.00005   0.00000   0.00218   0.00218  -3.12373
   D28        0.02017   0.00002   0.00000   0.00093   0.00093   0.02111
   D29        0.15986  -0.00003   0.00000  -0.00121  -0.00121   0.15865
   D30        3.02917   0.00001   0.00000   0.00016   0.00016   3.02933
   D31       -2.99799  -0.00003   0.00000  -0.00111  -0.00111  -2.99910
   D32       -0.12868   0.00001   0.00000   0.00026   0.00026  -0.12843
         Item               Value     Threshold  Converged?
 Maximum Force            0.000868     0.000015     NO 
 RMS     Force            0.000210     0.000010     NO 
 Maximum Displacement     0.022927     0.000060     NO 
 RMS     Displacement     0.005030     0.000040     NO 
 Predicted change in Energy=-6.516038D-06
 GradGradGradGradGradGradGradGradGradGradGradGradGradGradGradGradGradGrad

                          Input orientation:                          
 ---------------------------------------------------------------------
 Center     Atomic      Atomic             Coordinates (Angstroms)
 Number     Number       Type             X           Y           Z
 ---------------------------------------------------------------------
      1          6           0        0.031665    1.004136    0.668971
      2          6           0       -0.455935    1.537838   -0.505021
      3          6           0       -0.683327    0.740034   -1.616874
      4          6           0       -0.419906   -0.604608   -1.547207
      5          6           0        0.074764   -1.181811   -0.370491
      6          6           0        0.301983   -0.352485    0.751200
      7          1           0        0.202010    1.646857    1.518818
      8          1           0       -1.065293    1.189335   -2.520911
      9          1           0       -0.597523   -1.234343   -2.409190
     10          7           0       -0.734917    2.964573   -0.578622
     11          8           0       -1.170809    3.403285   -1.625293
     12          8           0       -0.523378    3.638489    0.410210
     13          7           0        0.315990   -2.513710   -0.295104
     14          1           0        0.273461   -3.083837   -1.118770
     15          1           0        0.760709   -2.892796    0.522453
     16          6           0        0.811165   -0.927658    1.951435
     17          6           0        1.242462   -1.451049    2.938134
     18          1           0        1.636879   -1.882250    3.826262
 ---------------------------------------------------------------------
                    Distance matrix (angstroms):
                    1          2          3          4          5
     1  C    0.000000
     2  C    1.378713   0.000000
     3  C    2.409575   1.387233   0.000000
     4  C    2.775503   2.382755   1.371972   0.000000
     5  C    2.420889   2.774208   2.412812   1.400900   0.000000
     6  C    1.385733   2.392876   2.787869   2.422265   1.413365
     7  H    1.079049   2.130892   3.382117   3.854398   3.403974
     8  H    3.378308   2.134616   1.079376   2.140761   3.397995
     9  H    3.857686   3.366139   2.129153   1.082187   2.147329
    10  N    2.446926   1.455617   2.455443   3.711663   4.229823
    11  O    3.530652   2.290403   2.707511   4.078377   4.914172
    12  O    2.704597   2.292364   3.540579   4.673977   4.919610
    13  N    3.658623   4.129766   3.651377   2.398744   1.355665
    14  H    4.468334   4.718960   3.973102   2.609769   2.053559
    15  H    3.967248   4.708125   4.456391   3.303505   2.048253
    16  C    2.446255   3.703835   4.212782   3.722955   2.449127
    17  C    3.555709   4.865523   5.409030   4.857799   3.518950
    18  H    4.569073   5.902278   6.472052   5.893802   4.532500
                    6          7          8          9         10
     6  C    0.000000
     7  H    2.143968   0.000000
     8  H    3.866959   4.258497   0.000000
     9  H    3.402184   4.936579   2.470932   0.000000
    10  N    3.721084   2.648294   2.652000   4.582658   0.000000
    11  O    4.682163   3.854232   2.390573   4.738222   1.215726
    12  O    4.089667   2.392028   3.857914   5.630187   1.215196
    13  N    2.401217   4.540222   4.535935   2.634510   5.585371
    14  H    3.310270   5.416774   4.692363   2.417525   6.155636
    15  H    2.591512   4.681169   5.409265   3.631775   6.144757
    16  C    1.425010   2.680738   5.291941   4.592767   4.892956
    17  C    2.621836   3.562867   6.488339   5.659186   5.981248
    18  H    3.684852   4.453958   7.551356   6.655314   6.965638
                   11         12         13         14         15
    11  O    0.000000
    12  O    2.148897   0.000000
    13  N    6.244261   6.249125   0.000000
    14  H    6.665226   6.939914   1.002636   0.000000
    15  H    6.927064   6.657264   1.004929   1.722649   0.000000
    16  C    5.956364   5.000608   2.794225   3.790038   2.430289
    17  C    7.086135   5.950798   3.527241   4.479221   2.854161
    18  H    8.095644   6.842126   4.373688   5.268402   3.564272
                   16         17         18
    16  C    0.000000
    17  C    1.197301   0.000000
    18  H    2.260094   1.063142   0.000000
 Stoichiometry    C8H6N2O2
 Framework group  C1[X(C8H6N2O2)]
 Deg. of freedom    48
 Full point group                 C1      NOp   1
 Largest Abelian subgroup         C1      NOp   1
 Largest concise Abelian subgroup C1      NOp   1
                         Standard orientation:                         
 ---------------------------------------------------------------------
 Center     Atomic      Atomic             Coordinates (Angstroms)
 Number     Number       Type             X           Y           Z
 ---------------------------------------------------------------------
      1          6           0       -0.116758   -0.839917   -0.002969
      2          6           0       -1.149364    0.073627    0.000250
      3          6           0       -0.901022    1.438447    0.003274
      4          6           0        0.395221    1.887953    0.001507
      5          6           0        1.469523    0.988857   -0.003274
      6          6           0        1.196588   -0.397904   -0.004256
      7          1           0       -0.336862   -1.896279   -0.002985
      8          1           0       -1.732131    2.127144    0.006133
      9          1           0        0.597374    2.951091    0.000726
     10          7           0       -2.524485   -0.403718    0.002512
     11          8           0       -3.412389    0.426701   -0.001950
     12          8           0       -2.711023   -1.604512    0.002532
     13          7           0        2.750238    1.432824   -0.025435
     14          1           0        2.950956    2.407382    0.097967
     15          1           0        3.505462    0.776670    0.069325
     16          6           0        2.281581   -1.321723   -0.002532
     17          6           0        3.222117   -2.062600    0.002260
     18          1           0        4.034904   -2.747702    0.019078
 ---------------------------------------------------------------------
 Rotational constants (GHZ):      1.8867519      0.6338177      0.4744605
 Basis read from rwf:  (5D, 7F)
 There are   504 symmetry adapted basis functions of A   symmetry.
 Integral buffers will be    131072 words long.
 Raffenetti 2 integral format.
 Two-electron integral symmetry is turned on.
   504 basis functions,   768 primitive gaussians,   576 cartesian basis functions
    42 alpha electrons       42 beta electrons
       nuclear repulsion energy       633.6472887805 Hartrees.
 NAtoms=   18 NActive=   18 NUniq=   18 SFac= 7.50D-01 NAtFMM=   80 NAOKFM=F Big=F
 One-electron integrals computed using PRISM.
 NBasis=   504 RedAO= T  NBF=   504
 NBsUse=   501 1.00D-06 NBFU=   501
 Initial guess read from the read-write file.
 B after Tr=     0.000000    0.000000    0.000000
         Rot=    1.000000    0.000000    0.000000    0.000000 Ang=   0.00 deg.
 Initial guess orbital symmetries:
       Occupied  (A) (A) (A) (A) (A) (A) (A) (A) (A) (A) (A) (A)
                 (A) (A) (A) (A) (A) (A) (A) (A) (A) (A) (A) (A)
                 (A) (A) (A) (A) (A) (A) (A) (A) (A) (A) (A) (A)
                 (A) (A) (A) (A) (A) (A)
       Virtual   (A) (A) (A) (A) (A) (A) (A) (A) (A) (A) (A) (A)
                 (A) (A) (A) (A) (A) (A) (A) (A) (A) (A) (A) (A)
                 (A) (A) (A) (A) (A) (A) (A) (A) (A) (A) (A) (A)
                 (A) (A) (A) (A) (A) (A) (A) (A) (A) (A) (A) (A)
                 (A) (A) (A) (A) (A) (A) (A) (A) (A) (A) (A) (A)
                 (A) (A) (A) (A) (A) (A) (A) (A) (A) (A) (A) (A)
                 (A) (A) (A) (A) (A) (A) (A) (A) (A) (A) (A) (A)
                 (A) (A) (A) (A) (A) (A) (A) (A) (A) (A) (A) (A)
                 (A) (A) (A) (A) (A) (A) (A) (A) (A) (A) (A) (A)
                 (A) (A) (A) (A) (A) (A) (A) (A) (A) (A) (A) (A)
                 (A) (A) (A) (A) (A) (A) (A) (A) (A) (A) (A) (A)
                 (A) (A) (A) (A) (A) (A) (A) (A) (A) (A) (A) (A)
                 (A) (A) (A) (A) (A) (A) (A) (A) (A) (A) (A) (A)
                 (A) (A) (A) (A) (A) (A) (A) (A) (A) (A) (A) (A)
                 (A) (A) (A) (A) (A) (A) (A) (A) (A) (A) (A) (A)
                 (A) (A) (A) (A) (A) (A) (A) (A) (A) (A) (A) (A)
                 (A) (A) (A) (A) (A) (A) (A) (A) (A) (A) (A) (A)
                 (A) (A) (A) (A) (A) (A) (A) (A) (A) (A) (A) (A)
                 (A) (A) (A) (A) (A) (A) (A) (A) (A) (A) (A) (A)
                 (A) (A) (A) (A) (A) (A) (A) (A) (A) (A) (A) (A)
                 (A) (A) (A) (A) (A) (A) (A) (A) (A) (A) (A) (A)
                 (A) (A) (A) (A) (A) (A) (A) (A) (A) (A) (A) (A)
                 (A) (A) (A) (A) (A) (A) (A) (A) (A) (A) (A) (A)
                 (A) (A) (A) (A) (A) (A) (A) (A) (A) (A) (A) (A)
                 (A) (A) (A) (A) (A) (A) (A) (A) (A) (A) (A) (A)
                 (A) (A) (A) (A) (A) (A) (A) (A) (A) (A) (A) (A)
                 (A) (A) (A) (A) (A) (A) (A) (A) (A) (A) (A) (A)
                 (A) (A) (A) (A) (A) (A) (A) (A) (A) (A) (A) (A)
                 (A) (A) (A) (A) (A) (A) (A) (A) (A) (A) (A) (A)
                 (A) (A) (A) (A) (A) (A) (A) (A) (A) (A) (A) (A)
                 (A) (A) (A) (A) (A) (A) (A) (A) (A) (A) (A) (A)
                 (A) (A) (A) (A) (A) (A) (A) (A) (A) (A) (A) (A)
                 (A) (A) (A) (A) (A) (A) (A) (A) (A) (A) (A) (A)
                 (A) (A) (A) (A) (A) (A) (A) (A) (A) (A) (A) (A)
                 (A) (A) (A) (A) (A) (A) (A) (A) (A) (A) (A) (A)
                 (A) (A) (A) (A) (A) (A) (A) (A) (A) (A) (A) (A)
                 (A) (A) (A) (A) (A) (A) (A) (A) (A) (A) (A) (A)
                 (A) (A) (A) (A) (A) (A) (A) (A) (A) (A) (A) (A)
                 (A) (A) (A)
 Harris functional with IExCor=20419 diagonalized for initial guess.
 ExpMin= 4.85D-02 ExpMax= 2.70D+04 ExpMxC= 9.22D+02 IAcc=3 IRadAn=         5 AccDes= 0.00D+00
 HarFok:  IExCor=20419 AccDes= 0.00D+00 IRadAn=         5 IDoV= 1
 ScaDFX=  1.000000  1.000000  1.000000  1.000000
 FoFCou: FMM=F IPFlag=           0 FMFlag=      100000 FMFlg1=           0
         NFxFlg=           0 DoJE=T BraDBF=F KetDBF=T FulRan=T
         Omega=  0.000000  0.000000  1.000000  0.000000  0.000000 ICntrl=     500 IOpCl=  0
         NMat0=    1 NMatS0=    1 NMatT0=    0 NMatD0=    1 NMtDS0=    0 NMtDT0=    0
         I1Cent=           4 NGrid=           0.
 Petite list used in FoFCou.
 FoFJK:  IHMeth= 1 ICntrl=     0 DoSepK=T KAlg= 1 I1Cent= 0 FoldK=F
 Gradient too large for Newton-Raphson -- use scaled steepest descent instead.
 FoFJK:  IHMeth= 1 ICntrl=     0 DoSepK=T KAlg= 1 I1Cent= 0 FoldK=F
 FoFJK:  IHMeth= 1 ICntrl=     0 DoSepK=T KAlg= 1 I1Cent= 0 FoldK=F
 FoFJK:  IHMeth= 1 ICntrl=     0 DoSepK=T KAlg= 1 I1Cent= 0 FoldK=F
 FoFJK:  IHMeth= 1 ICntrl=     0 DoSepK=T KAlg= 1 I1Cent= 0 FoldK=F
 FoFJK:  IHMeth= 1 ICntrl=     0 DoSepK=T KAlg= 1 I1Cent= 0 FoldK=F
 FoFJK:  IHMeth= 1 ICntrl=     0 DoSepK=T KAlg= 1 I1Cent= 0 FoldK=F
 FoFJK:  IHMeth= 1 ICntrl=     0 DoSepK=T KAlg= 1 I1Cent= 0 FoldK=F
 LinEq1:  Iter=  0 NonCon=     1 RMS=9.32D-06 Max=4.52D-04
 AX will form     1 AO Fock derivatives at one time.
 FoFJK:  IHMeth= 1 ICntrl=     0 DoSepK=T KAlg= 1 I1Cent= 0 FoldK=F
 LinEq1:  Iter=  1 NonCon=     1 RMS=6.70D-06 Max=2.62D-04
 FoFJK:  IHMeth= 1 ICntrl=     0 DoSepK=T KAlg= 1 I1Cent= 0 FoldK=F
 LinEq1:  Iter=  2 NonCon=     1 RMS=4.02D-06 Max=1.60D-04
 FoFJK:  IHMeth= 1 ICntrl=     0 DoSepK=T KAlg= 1 I1Cent= 0 FoldK=F
 LinEq1:  Iter=  3 NonCon=     1 RMS=2.63D-06 Max=1.40D-04
 FoFJK:  IHMeth= 1 ICntrl=     0 DoSepK=T KAlg= 1 I1Cent= 0 FoldK=F
 LinEq1:  Iter=  4 NonCon=     1 RMS=2.15D-06 Max=1.17D-04
 FoFJK:  IHMeth= 1 ICntrl=     0 DoSepK=T KAlg= 1 I1Cent= 0 FoldK=F
 LinEq1:  Iter=  5 NonCon=     1 RMS=1.38D-06 Max=5.21D-05
 FoFJK:  IHMeth= 1 ICntrl=     0 DoSepK=T KAlg= 1 I1Cent= 0 FoldK=F
 LinEq1:  Iter=  6 NonCon=     1 RMS=7.31D-07 Max=1.91D-05
 FoFJK:  IHMeth= 1 ICntrl=     0 DoSepK=T KAlg= 1 I1Cent= 0 FoldK=F
 LinEq1:  Iter=  7 NonCon=     1 RMS=3.73D-07 Max=1.37D-05
 FoFJK:  IHMeth= 1 ICntrl=     0 DoSepK=T KAlg= 1 I1Cent= 0 FoldK=F
 LinEq1:  Iter=  8 NonCon=     1 RMS=2.01D-07 Max=9.14D-06
 FoFJK:  IHMeth= 1 ICntrl=     0 DoSepK=T KAlg= 1 I1Cent= 0 FoldK=F
 LinEq1:  Iter=  9 NonCon=     1 RMS=1.12D-07 Max=4.91D-06
 FoFJK:  IHMeth= 1 ICntrl=     0 DoSepK=T KAlg= 1 I1Cent= 0 FoldK=F
 LinEq1:  Iter= 10 NonCon=     1 RMS=6.99D-08 Max=2.35D-06
 FoFJK:  IHMeth= 1 ICntrl=     0 DoSepK=T KAlg= 1 I1Cent= 0 FoldK=F
 LinEq1:  Iter= 11 NonCon=     1 RMS=4.11D-08 Max=1.78D-06
 FoFJK:  IHMeth= 1 ICntrl=     0 DoSepK=T KAlg= 1 I1Cent= 0 FoldK=F
 LinEq1:  Iter= 12 NonCon=     1 RMS=1.86D-08 Max=9.13D-07
 FoFJK:  IHMeth= 1 ICntrl=     0 DoSepK=T KAlg= 1 I1Cent= 0 FoldK=F
 LinEq1:  Iter= 13 NonCon=     1 RMS=8.66D-09 Max=2.23D-07
 FoFJK:  IHMeth= 1 ICntrl=     0 DoSepK=T KAlg= 1 I1Cent= 0 FoldK=F
 LinEq1:  Iter= 14 NonCon=     0 RMS=2.81D-09 Max=5.92D-08
 Linear equations converged to 1.964D-08 1.964D-07 after    14 iterations.
 FoFJK:  IHMeth= 1 ICntrl=     0 DoSepK=T KAlg= 1 I1Cent= 0 FoldK=F
 FoFJK:  IHMeth= 1 ICntrl=     0 DoSepK=T KAlg= 1 I1Cent= 0 FoldK=F
 FoFJK:  IHMeth= 1 ICntrl=     0 DoSepK=T KAlg= 1 I1Cent= 0 FoldK=F
 SCF Done:  E(RCAM-B3LYP) =  -568.221969551     a.u. after    3 cycles
            Convg  =    0.1265D-05                    25 Fock formations.
              S**2 =  0.0000                  -V/T =  2.0039
 Calling FoFJK, ICntrl=      2127 FMM=F ISym2X=0 I1Cent= 0 IOpClX= 0 NMat=1 NMatS=1 NMatT=0.
 FoFJK:  IHMeth= 1 ICntrl=  2127 DoSepK=T KAlg= 1 I1Cent= 0 FoldK=F
 ***** Axes restored to original set *****
 -------------------------------------------------------------------
 Center     Atomic                   Forces (Hartrees/Bohr)
 Number     Number              X              Y              Z
 -------------------------------------------------------------------
      1        6           0.000017139   -0.000011908   -0.000076526
      2        6           0.000300195   -0.000013700   -0.000041585
      3        6          -0.000034333   -0.000028462    0.000001019
      4        6           0.000010050    0.000056051    0.000024964
      5        6           0.000001976    0.000054086    0.000081608
      6        6          -0.000223065   -0.000142958   -0.000110282
      7        1           0.000005755    0.000013815    0.000029729
      8        1           0.000020874   -0.000005597   -0.000016642
      9        1           0.000000972    0.000004569   -0.000000397
     10        7          -0.000966842    0.000029646    0.000354079
     11        8           0.000352996   -0.000045934   -0.000182422
     12        8           0.000355596   -0.000112923   -0.000061672
     13        7           0.000023681    0.000105016    0.000045583
     14        1          -0.000012742    0.000008434    0.000015905
     15        1          -0.000010336   -0.000019853   -0.000004143
     16        6           0.000005885   -0.000088729   -0.000063816
     17        6           0.000513444    0.000517844    0.000000782
     18        1          -0.000361245   -0.000319397    0.000003817
 -------------------------------------------------------------------
 Cartesian Forces:  Max     0.000966842 RMS     0.000208744

 GradGradGradGradGradGradGradGradGradGradGradGradGradGradGradGradGradGrad
 Berny optimization.
 Using GEDIIS/GDIIS optimizer.
 Internal  Forces:  Max     0.000725175 RMS     0.000150708
 Search for a local minimum.
 Step number   2 out of a maximum of   88
 All quantities printed in internal units (Hartrees-Bohrs-Radians)
 Mixed Optimization -- En-DIIS/RFO-DIIS
 Swaping is turned off.
 Update second derivatives using D2CorX and points    1    2
 DE=  5.27D-06 DEPred=-6.52D-06 R=-8.09D-01
 Trust test=-8.09D-01 RLast= 2.36D-02 DXMaxT set to 1.50D-01
     Eigenvalues ---    0.00584   0.00796   0.00831   0.01807   0.01907
     Eigenvalues ---    0.02087   0.02127   0.02241   0.02265   0.02291
     Eigenvalues ---    0.02296   0.02325   0.02377   0.02517   0.03938
     Eigenvalues ---    0.04625   0.04796   0.15838   0.16000   0.16000
     Eigenvalues ---    0.16000   0.16006   0.21008   0.22665   0.24222
     Eigenvalues ---    0.24612   0.24999   0.25000   0.25000   0.25502
     Eigenvalues ---    0.33907   0.35833   0.36119   0.36637   0.38087
     Eigenvalues ---    0.39333   0.41659   0.43130   0.45927   0.46453
     Eigenvalues ---    0.46888   0.47262   0.48749   0.49687   0.53662
     Eigenvalues ---    0.97251   0.97567   1.049261000.000001000.00000
     Eigenvalues --- 1000.000001000.000001000.000001000.000001000.00000
     Eigenvalues --- 1000.000001000.000001000.000001000.000001000.00000
     Eigenvalues --- 1000.000001000.000001000.000001000.000001000.00000
     Eigenvalues --- 1000.000001000.000001000.000001000.000001000.00000
     Eigenvalues --- 1000.000001000.000001000.000001000.000001000.00000
     Eigenvalues --- 1000.000001000.000001000.00000
 En-DIIS/RFO-DIIS IScMMF=        0 using points:     2    1
 RFO step:  Lambda=-7.42906104D-06.
 DIIS coeffs:      0.35577      0.64423
 Iteration  1 RMS(Cart)=  0.00723060 RMS(Int)=  0.00009700
 Iteration  2 RMS(Cart)=  0.00010271 RMS(Int)=  0.00000655
 Iteration  3 RMS(Cart)=  0.00000002 RMS(Int)=  0.00000655
 Variable       Old X    -DE/DX   Delta X   Delta X   Delta X     New X
                                  (DIIS)     (GDIIS)  (Total)
    R1        2.60539  -0.00011  -0.00059   0.00207   0.00149   2.60688
    R2        2.61866  -0.00011  -0.00078   0.00277   0.00199   2.62065
    R3        2.03911   0.00003  -0.00034   0.00128   0.00094   2.04004
    R4        2.62149  -0.00002  -0.00012   0.00041   0.00030   2.62179
    R5        2.75072  -0.00008  -0.00089   0.00318   0.00229   2.75301
    R6        2.59265  -0.00007  -0.00028   0.00097   0.00070   2.59335
    R7        2.03973   0.00000  -0.00031   0.00115   0.00084   2.04057
    R8        2.64732  -0.00002  -0.00036   0.00132   0.00096   2.64827
    R9        2.04504   0.00000  -0.00029   0.00105   0.00076   2.04580
   R10        2.67087  -0.00020  -0.00080   0.00276   0.00196   2.67283
   R11        2.56184  -0.00009  -0.00047   0.00165   0.00119   2.56302
   R12        2.69288  -0.00004  -0.00134   0.00487   0.00353   2.69641
   R13        2.29739   0.00001  -0.00008   0.00030   0.00022   2.29761
   R14        2.29639  -0.00005  -0.00004   0.00013   0.00009   2.29648
   R15        1.89471  -0.00002  -0.00025   0.00090   0.00065   1.89536
   R16        1.89904   0.00000  -0.00016   0.00059   0.00043   1.89947
   R17        2.26257  -0.00003  -0.00037   0.00134   0.00097   2.26354
   R18        2.00905   0.00000  -0.00026   0.00096   0.00070   2.00975
    A1        2.09265  -0.00002  -0.00066   0.00238   0.00172   2.09437
    A2        2.08967   0.00002   0.00036  -0.00129  -0.00093   2.08874
    A3        2.10086   0.00000   0.00030  -0.00109  -0.00080   2.10007
    A4        2.11511   0.00004   0.00059  -0.00211  -0.00152   2.11359
    A5        2.08318  -0.00010  -0.00075   0.00261   0.00186   2.08504
    A6        2.08490   0.00005   0.00016  -0.00050  -0.00034   2.08455
    A7        2.08458  -0.00006  -0.00022   0.00075   0.00052   2.08510
    A8        2.08278   0.00004   0.00017  -0.00056  -0.00039   2.08239
    A9        2.11583   0.00002   0.00006  -0.00019  -0.00014   2.11569
   A10        2.11095  -0.00002  -0.00042   0.00152   0.00110   2.11204
   A11        2.09250   0.00000   0.00030  -0.00109  -0.00080   2.09171
   A12        2.07973   0.00001   0.00012  -0.00043  -0.00031   2.07942
   A13        2.07331   0.00003   0.00028  -0.00099  -0.00071   2.07260
   A14        2.11104   0.00005   0.00074  -0.00266  -0.00192   2.10912
   A15        2.09873  -0.00007  -0.00102   0.00365   0.00263   2.10136
   A16        2.08977   0.00002   0.00043  -0.00155  -0.00113   2.08865
   A17        2.11161  -0.00002   0.00021  -0.00080  -0.00059   2.11102
   A18        2.08180   0.00000  -0.00064   0.00236   0.00172   2.08352
   A19        2.05551  -0.00006  -0.00004   0.00009   0.00002   2.05553
   A20        2.05903  -0.00017  -0.00054   0.00177   0.00120   2.06022
   A21        2.16863   0.00023   0.00059  -0.00180  -0.00124   2.16739
   A22        2.10068  -0.00001  -0.00020   0.00071   0.00051   2.10119
   A23        2.08817   0.00003  -0.00033   0.00129   0.00096   2.08913
   A24        2.06303  -0.00001   0.00031  -0.00113  -0.00082   2.06221
   A25        3.17731  -0.00066  -0.00686  -0.01472  -0.02158   3.15573
   A26        3.13574   0.00073   0.01015   0.00626   0.01641   3.15215
   A27        3.10345  -0.00016   0.00088  -0.00444  -0.00355   3.09990
   A28        3.13648   0.00021  -0.00075   0.00435   0.00360   3.14009
    D1       -0.00086  -0.00001   0.00036  -0.00145  -0.00109  -0.00195
    D2       -3.14085  -0.00001   0.00095  -0.00365  -0.00270   3.13963
    D3        3.13914  -0.00001   0.00071  -0.00271  -0.00200   3.13714
    D4       -0.00085  -0.00001   0.00130  -0.00491  -0.00362  -0.00446
    D5       -0.00083   0.00000   0.00083  -0.00305  -0.00223  -0.00306
    D6        3.13746  -0.00002   0.00000  -0.00029  -0.00029   3.13718
    D7       -3.14082   0.00000   0.00047  -0.00178  -0.00131   3.14106
    D8       -0.00253  -0.00002  -0.00035   0.00098   0.00063  -0.00190
    D9        0.00130   0.00001  -0.00088   0.00339   0.00251   0.00381
   D10       -3.14119   0.00001  -0.00001   0.00027   0.00026  -3.14093
   D11        3.14129   0.00001  -0.00147   0.00560   0.00412  -3.13777
   D12       -0.00120   0.00002  -0.00060   0.00248   0.00187   0.00067
   D13       -3.13482  -0.00038   0.00061  -0.01639  -0.01578   3.13258
   D14        0.00100   0.00034   0.00478  -0.00515  -0.00036   0.00063
   D15        0.00835  -0.00039   0.00118  -0.01855  -0.01737  -0.00902
   D16       -3.13902   0.00034   0.00536  -0.00731  -0.00195  -3.14097
   D17       -0.00002   0.00000   0.00021  -0.00077  -0.00057  -0.00059
   D18        3.13827   0.00000   0.00097  -0.00357  -0.00261   3.13567
   D19       -3.14070  -0.00001  -0.00068   0.00241   0.00173  -3.13897
   D20       -0.00241  -0.00001   0.00008  -0.00039  -0.00031  -0.00272
   D21       -0.00163  -0.00001   0.00095  -0.00364  -0.00269  -0.00431
   D22        3.12403   0.00000   0.00088  -0.00329  -0.00241   3.12162
   D23       -3.13994  -0.00001   0.00020  -0.00086  -0.00066  -3.14061
   D24       -0.01428   0.00000   0.00012  -0.00051  -0.00039  -0.01467
   D25        0.00205   0.00001  -0.00146   0.00553   0.00407   0.00611
   D26       -3.13630   0.00002  -0.00066   0.00282   0.00216  -3.13414
   D27       -3.12373   0.00000  -0.00141   0.00524   0.00384  -3.11989
   D28        0.02111   0.00002  -0.00060   0.00254   0.00193   0.02304
   D29        0.15865  -0.00001   0.00078  -0.00307  -0.00229   0.15636
   D30        3.02933   0.00001  -0.00010   0.00046   0.00036   3.02969
   D31       -2.99910  -0.00001   0.00072  -0.00276  -0.00204  -3.00114
   D32       -0.12843   0.00001  -0.00017   0.00077   0.00061  -0.12782
         Item               Value     Threshold  Converged?
 Maximum Force            0.000725     0.000015     NO 
[...]
 4737234,0.0738511,0.090891,0.1628999,-1.7394902,-0.0511308,0.0729672,0
 .1402307,-0.1920708,0.2696776,0.102233,-0.0381626,0.0355993,0.2547179,
 0.04835,-0.0456999,0.0513728,0.1501868,0.2494669,0.0439529,-0.0218116,
 0.0149585,0.2087067,-0.0120415,-0.0117016,-0.0908119,0.2220531,0.00785
 97,-0.0768428,0.1682973,-0.1026744,-0.0199283,-0.2770699,0.1561875,-0.
 2020107,0.2745396,-0.2956261,0.0766641,-0.1479986,0.0830121,-0.2981111
 ,0.2012124,-0.1410666,0.1789061,-0.5450222,0.2283814,-0.007961,0.01792
 55,-0.0087366,0.2111196,-0.0320062,0.0150439,-0.0267291,0.25143\Polar=
 78.4008064,-23.0698925,162.9745268,28.1930672,-16.3298109,139.8362021\
 PG=C01 [X(C8H6N2O2)]\NImag=0\\0.21961652,-0.07910416,0.70387608,0.1726
 3202,0.06162725,0.69379643,-0.09937338,0.02185044,-0.08976237,0.210454
 63,0.04173138,-0.13803548,0.08557347,-0.06578408,0.57258075,-0.0792229
 0,0.02648121,-0.28724710,0.18398303,0.03750323,0.70703051,0.00421421,-
 0.00432909,-0.01526212,-0.08039179,-0.02149178,-0.05443191,0.22703077,
 -0.02042398,0.05830824,-0.03433126,-0.00094858,-0.16693295,-0.05712972
 ,-0.10446200,0.71105284,-0.02391581,0.01378037,-0.05540682,-0.04338734
 ,-0.11868825,-0.25977609,0.18035047,-0.01037628,0.68204325,-0.00890951
 ,0.01381459,-0.01147709,0.01491846,0.00526758,0.02193846,-0.07933263,0
 .04605182,-0.03009294,0.19672890,0.01744849,-0.03981688,0.03212643,-0.
 01297249,-0.04799812,-0.06908724,0.06877585,-0.36898520,0.04048674,-0.
 08588565,0.74121901,-0.00929096,0.02054466,-0.01937750,0.01187624,-0.0
 1461840,0.03610276,-0.01790245,-0.02605622,-0.12859017,0.15999859,0.06
 835817,0.64185804,0.01190816,-0.01538200,0.01895727,-0.01184174,-0.006
 16613,-0.02092428,-0.00267744,0.03222294,0.00552612,-0.09957810,0.0166
 8010,-0.07552537,0.24206992,-0.00007025,-0.04152891,-0.02484989,-0.005
 85536,0.01751994,-0.00470814,0.01649389,-0.02546286,0.03416516,0.03662
 679,-0.14295641,0.06906811,-0.09919397,0.73038623,0.02702023,-0.068595
 40,0.04655694,-0.02029822,-0.00826055,-0.07098989,-0.00362268,0.083288
 27,0.03559013,-0.06403164,0.01076269,-0.25775514,0.15385888,0.01197236
 ,0.63963059,-0.07788756,0.05756380,-0.01438660,0.00144912,0.01428765,-
 0.01011676,-0.00225449,0.00308440,0.00303364,0.00394856,-0.00670863,-0
 .01098195,-0.08522433,-0.01235073,-0.04256758,0.21390826,0.03936250,-0
 .33135070,-0.02621764,0.03243202,-0.02733566,0.07790667,-0.00177189,-0
 .05115218,-0.03123191,-0.01611196,0.05575365,-0.02109334,0.00356740,-0
 .16395888,-0.03895906,-0.09949321,0.68286091,-0.02442633,0.02872927,-0
 .11966071,-0.00008223,0.02343795,0.01967641,0.00039423,-0.01710141,-0.
 01073468,-0.01610679,0.00667561,-0.03748395,-0.03295113,-0.08592872,-0
 .22076177,0.15890648,-0.00726836,0.60781531,-0.05217598,-0.02539128,-0
 .04289197,0.00469400,-0.00692769,-0.00871939,0.00378910,0.00204329,-0.
 00319802,-0.00102132,0.00019244,0.00034510,0.00629734,0.00244165,-0.00
 225617,0.00631110,0.00443705,0.00459374,0.03956435,-0.02547842,-0.1583
 0497,-0.13748531,0.00158398,0.01284713,0.00813709,0.00201659,-0.000748
 83,0.00283928,0.00015769,-0.00069324,0.00069251,0.00237840,-0.00393164
 ,0.00099044,-0.00453720,-0.01245195,-0.02296868,0.02545951,0.16534959,
 -0.04282922,-0.13746022,-0.24271509,-0.00431129,-0.01701266,-0.0154974
 4,-0.00320212,0.00295889,-0.00271465,0.00032377,0.00074216,0.00026896,
 -0.00228852,0.00112534,0.00127523,-0.00018940,0.00378613,0.00696896,0.
 04858037,0.14885244,0.25142490,0.00438960,-0.00005804,-0.00168946,0.00
 367936,0.00250999,-0.00489085,-0.08102046,0.04380797,-0.09242917,0.003
 66379,0.00171086,-0.00462703,0.00771837,0.00182718,-0.00211376,-0.0009
 0792,-0.00015749,0.00055387,0.00028823,0.00015676,-0.00018995,0.071058
 32,-0.00001943,-0.00222898,-0.00390277,-0.00596633,0.01321909,-0.01384
 765,0.04437125,-0.10542037,0.09876412,0.01059111,-0.00668166,0.0251432
 4,0.00212572,-0.00465940,-0.00074531,-0.00014757,-0.00105096,-0.000401
 65,-0.00035215,0.00067965,-0.00088136,-0.04990408,0.10765406,-0.001660
 36,-0.00405785,-0.00220265,-0.00945202,0.01153709,-0.01632383,-0.09212
 118,0.09706778,-0.26581507,0.00016639,-0.00139805,0.00525349,-0.001983
 77,-0.00154767,0.00203147,0.00057332,-0.00047374,0.00033768,-0.0004664
 8,0.00064049,-0.00066886,0.10220463,-0.10646257,0.27660479,-0.00095926
 ,0.00036903,0.00006265,0.00647663,0.00231216,-0.00201706,0.00402638,0.
 00399998,0.00566592,-0.04575575,-0.02301317,-0.04504225,0.00245227,-0.
 00710763,-0.00912467,0.00397083,0.00184125,-0.00278604,-0.00038409,-0.
 00008275,0.00014160,-0.00431833,-0.00109553,0.00165272,0.03668176,0.00
 023628,-0.00076747,0.00078019,0.00257877,-0.00401714,0.00155726,-0.005
 74316,-0.01484155,-0.02647689,-0.02289063,-0.15213287,-0.13034177,0.00
 286875,0.00927931,0.01121035,0.00166124,-0.00023807,0.00212795,-0.0000
 8646,-0.00000784,-0.00003716,-0.00090351,0.00109041,0.00053849,0.02318
 601,0.16016721,-0.00003210,0.00125131,-0.00030827,-0.00183505,0.000675
 35,0.00250124,0.00048967,0.00218541,0.00543151,-0.04501132,-0.12996576
 ,-0.23711430,-0.00387142,-0.01862625,-0.01712010,-0.00287735,0.0026060
 6,-0.00206870,0.00013484,-0.00002084,-0.00004606,0.00176142,0.00003629
 ,0.00016164,0.05037294,0.14127672,0.24800320,-0.00602565,0.01530316,0.
 00014489,-0.08833975,0.00833839,-0.00912067,-0.00071120,0.00075245,0.0
 0929717,0.00714370,-0.00320126,-0.00231934,-0.00217526,0.00295667,-0.0
 0122983,0.00618645,-0.00030765,-0.00578283,-0.00426431,-0.00077469,0.0
 0096737,-0.00398764,-0.00123259,-0.00029373,0.00123827,-0.00038696,-0.
 00035249,0.33229830,0.01448167,-0.03678271,0.02529716,0.00759699,-0.13
 199356,-0.00310797,0.00203853,-0.04426004,-0.01566505,-0.00403195,0.01
 157654,-0.00973576,0.00211273,-0.01674232,-0.00005150,0.00039458,0.016
 45062,0.00607972,-0.00186668,0.00069536,-0.00276453,-0.00006530,0.0011
 5887,0.00264803,0.00028892,0.00024274,0.00027530,-0.05879356,0.6792194
 0,-0.00031541,0.02777563,0.01055727,-0.00948510,-0.00086007,-0.1126132
 9,0.00997635,-0.01954449,0.01566535,-0.00274171,-0.00724185,-0.0048443
 3,-0.00130890,0.00063456,-0.00505865,-0.00533917,0.00342562,-0.0059734
 9,0.00035792,0.00057572,-0.00335006,0.00033297,-0.00085435,-0.00356888
 ,0.00001761,-0.00172032,0.00041764,0.20950638,0.05360748,0.90883697,0.
 00371837,0.00127646,0.00115479,0.01077264,0.02067356,-0.02019848,0.000
 66753,-0.00295106,-0.00306690,-0.00087135,0.00139517,-0.00024628,0.000
 43229,-0.00206128,-0.00023234,-0.00114375,0.00138044,0.00097462,0.0006
 5077,-0.00042988,0.00023262,-0.00000584,0.00082592,0.00079491,-0.00004
 171,0.00010175,0.00002973,-0.14197547,0.06889621,-0.13664833,0.1131202
 0,-0.00109355,-0.00345028,-0.00699611,0.02539347,-0.02965372,0.0487374
 7,0.00123699,-0.00232191,0.00182254,0.00082772,-0.00097854,0.00223809,
 0.00002613,0.00395164,0.00164217,0.00071021,-0.00429893,0.00035435,0.0
 0005268,0.00033590,0.00010373,0.00115451,-0.00400527,0.00136817,-0.000
 02041,-0.00016680,-0.00012248,0.06958654,-0.20801129,0.14202313,-0.085
 36504,0.20497429,-0.00009471,0.00005423,0.00330612,-0.01768432,0.03464
 443,-0.01315596,-0.00082067,-0.01073534,-0.00704111,-0.00056621,0.0039
 4175,-0.00007503,0.00066372,-0.00416572,0.00040492,0.00056311,0.002513
 95,0.00190363,0.00051483,-0.00136700,0.00124751,0.00097170,0.00038586,
 0.00299381,-0.00003217,0.00023886,-0.00001604,-0.13624867,0.13991289,-
 0.41738884,0.20041092,-0.16238713,0.54457640,-0.00026297,0.00338418,-0
 .00236363,0.02110687,0.00082495,0.00043140,0.00290182,0.00107320,-0.00
 182257,-0.00080706,0.00018572,0.00092133,0.00029667,0.00041819,0.00032
 762,-0.00023159,-0.00096379,0.00080152,0.00011189,0.00095873,0.0010779
 3,0.00040981,0.00045312,0.00023778,-0.00053621,0.00001665,0.00016269,-
 0.10030492,-0.02911550,-0.06406639,0.01539995,-0.01308844,-0.04739108,
 0.06190082,-0.00113257,-0.00003627,-0.00407371,-0.00347110,-0.04873424
 ,-0.04800022,0.00354413,-0.00230939,0.00734745,0.00070930,-0.00452470,
 0.00023490,-0.00119830,0.00453486,-0.00179488,-0.00028295,-0.00286071,
 -0.00206899,0.00063177,-0.00419369,-0.00031992,-0.00003262,0.00064686,
 0.00002233,0.00008985,-0.00093902,0.00008283,-0.02981613,-0.28625227,-
 0.19807081,-0.00568489,0.04806179,-0.00674912,0.03592074,0.30091937,-0
 .00480598,0.00949156,-0.00808746,-0.00186974,-0.03512378,-0.00341999,-
 0.00049639,-0.00002352,0.00220191,0.00120123,-0.00131294,0.00181544,-0
 .00052349,0.00357575,0.00026566,0.00118924,-0.00404261,0.00059150,0.00
 089100,0.00065201,0.00296829,-0.00002215,0.00148223,0.00113534,0.00020
 103,-0.00013868,-0.00007126,-0.06445103,-0.19599590,-0.38281742,-0.043
 39291,-0.02893389,-0.11684849,0.11162474,0.25290632,0.50184768,0.00263
 034,0.00178387,-0.00409256,-0.00014069,0.00172944,0.00283772,0.0037172
 9,-0.00292824,-0.00491356,0.00435891,0.02434481,-0.00564364,-0.0626436
 7,0.06765569,-0.02995960,0.01027024,-0.00538287,0.00055000,-0.00011262
 ,-0.00028090,0.00009494,-0.00031609,0.00043474,0.00011961,-0.00223737,
 -0.00068809,0.00174902,-0.00016933,-0.00141826,0.00027076,-0.00008755,
 0.00030789,-0.00015801,0.00005085,0.00054296,0.00037171,0.14613284,-0.
 00162579,0.00907602,-0.00225900,0.00279245,-0.01896128,-0.00159544,-0.
 00132295,0.01489021,0.00137201,0.01614750,-0.04079230,0.02341474,0.051
 19426,-0.34556586,0.00649235,0.00241490,-0.04880800,-0.02241119,0.0001
 1212,-0.00046216,0.00030132,-0.00000851,-0.00009187,0.00007552,-0.0011
 3673,0.00178860,-0.00056924,-0.00334133,0.01595366,-0.00112585,0.00194
 902,-0.00400198,0.00367554,-0.00009061,-0.00478341,-0.00287437,-0.1669
 4568,0.73472089,-0.00563695,0.00392311,-0.00981034,0.00222961,0.002647
 02,0.00729361,-0.00269650,-0.00868726,-0.00906891,-0.01218019,0.050425
 27,-0.00162697,-0.02799977,0.00162333,-0.12810412,0.00578033,-0.042333
 06,0.00611702,0.00037810,-0.00118121,0.00028990,-0.00012523,0.00120273
 ,0.00010356,0.00106859,0.00073057,0.00168190,0.00039818,-0.00142582,0.
 00011788,0.00001247,0.00017404,0.00011195,0.00012425,0.00074401,0.0007
 4466,0.23601330,0.07400848,0.79577385,0.00174069,-0.00047067,-0.000185
 16,-0.00011447,0.00109845,-0.00014006,-0.00073317,-0.00085096,0.000044
 27,-0.00195992,0.00087442,0.00060909,-0.00245077,-0.00319398,0.0075087
 3,0.00281418,0.00251839,-0.00041897,-0.00027121,-0.00000390,0.00008387
 ,0.00012611,0.00004414,-0.00004796,0.00038605,0.00010037,-0.00072175,0
 .00023488,-0.00092823,0.00003486,-0.00016161,0.00021541,-0.00023315,-0
 .00002223,0.00022477,0.00015634,-0.01002504,0.01395482,-0.03000182,0.0
 1328680,-0.00034678,-0.00026859,-0.00167927,0.00004559,0.00081432,0.00
 040655,-0.00026966,-0.00086151,-0.00000416,-0.00181667,0.00250273,-0.0
 0157946,-0.00330420,-0.01837203,-0.03073204,0.00254760,-0.00398510,0.0
 0292118,0.00004420,-0.00035029,0.00013921,0.00005132,0.00002410,-0.000
 00893,0.00073276,0.00001934,0.00119503,0.00017525,-0.00068019,0.000031
 75,-0.00007090,0.00017953,-0.00008420,0.00001528,0.00028048,0.00023026
 ,0.00517126,-0.19039211,-0.18483866,-0.00139495,0.19847399,-0.00026146
 ,-0.00046827,0.00042059,-0.00018568,0.00129542,0.00030573,0.00003091,-
 0.00124805,-0.00059425,0.00017273,0.00311039,0.00093644,0.00297655,0.0
 0120812,0.00739324,-0.00088135,0.00286961,0.00119394,0.00007922,0.0000
 9845,0.00000318,-0.00004257,0.00005959,0.00000204,-0.00006310,-0.00038
 693,-0.00045782,0.00029241,-0.00111488,0.00007793,-0.00015276,0.000272
 12,-0.00031912,-0.00000597,0.00029152,0.00016641,-0.03883425,-0.190301
 67,-0.34028129,0.03243028,0.20096678,0.34444527,-0.00063267,-0.0000034
 5,-0.00000733,0.00005720,-0.00003638,0.00002791,0.00172796,0.00022023,
 -0.00069767,0.00307393,0.00057534,-0.00036046,-0.00514953,-0.00007487,
 -0.00102863,-0.00063987,-0.00075238,-0.00006330,0.00011708,-0.00002175
 ,-0.00000512,-0.00031855,-0.00003911,0.00012984,-0.00065808,-0.0001732
 4,0.00017343,-0.00011179,0.00004352,0.00004657,0.00000411,-0.00000671,
 0.00000263,-0.00000630,-0.00002882,-0.00002855,-0.09027739,0.08474460,
 -0.16840541,-0.00247854,-0.00173441,0.00444508,0.09604153,0.00000875,-
 0.00051331,0.00046710,-0.00015893,0.00017027,-0.00043215,0.00078364,0.
 00033664,0.00166755,0.00081375,-0.00513121,-0.00266139,0.01559378,-0.0
 1033501,0.03177143,-0.00011935,0.00080342,0.00125300,0.00003390,0.0000
 0248,-0.00003013,-0.00001845,-0.00037480,-0.00004264,-0.00007040,0.000
 09492,0.00023579,0.00003656,-0.00020478,0.00010156,-0.00006860,0.00008
 529,-0.00017338,-0.00002076,0.00003300,-0.00005960,0.07757884,-0.12190
 161,0.10864186,-0.01174008,0.01200423,-0.01607742,-0.08249263,0.125209
 92,0.00006599,0.00058969,-0.00036447,0.00011515,-0.00217334,-0.0007856
 0,-0.00075008,0.00200340,0.00083204,0.00014391,-0.00359418,0.00300185,
 0.00047168,0.01049167,0.00261971,0.00065384,-0.00345548,-0.00165811,0.
 00000634,-0.00016900,0.00009770,0.00015323,-0.00000919,-0.00000978,0.0
 0026291,-0.00006556,0.00004624,-0.00033897,0.00181643,-0.00008239,0.00
 017598,-0.00036201,0.00033178,-0.00004064,-0.00057588,-0.00044822,-0.1
 5796779,0.10776410,-0.32145118,-0.00869344,0.01235173,-0.01279199,0.16
 527876,-0.12457225,0.32995015,-0.00374651,0.01300687,-0.01077707,0.008
 03984,0.00126631,0.00194964,-0.00108117,-0.00167014,-0.00092722,0.0048
 3144,0.00041486,-0.00219964,-0.00035260,-0.00356227,-0.01349242,-0.087
 89124,0.03311421,-0.07406312,-0.00390925,-0.00128292,0.00162685,-0.000
 54365,-0.00009716,0.00015682,-0.00026919,0.00010572,-0.00005122,0.0011
 3557,0.00135004,-0.00036293,-0.00044223,-0.00035476,0.00020631,-0.0000
 3547,-0.00041237,-0.00028168,-0.00173487,0.00326254,0.00024206,-0.0005
 4435,0.00025913,-0.00017766,-0.00003699,0.00007731,0.00134739,0.258902
 23,0.01729182,-0.02264355,0.03797045,0.00026865,-0.00349903,-0.0051536
 9,0.00010150,0.00001133,0.00087960,0.00015668,-0.00204334,-0.00354865,
 -0.00503074,0.01793360,-0.00777207,0.03521414,-0.11455495,0.07264317,-
 0.00084635,0.00117322,0.00059060,-0.00007501,0.00002585,0.00011676,-0.
 00040267,0.00052597,-0.00081898,0.00085449,-0.00133226,0.00100816,0.00
 000449,-0.00027159,0.00018463,0.00001359,0.00057732,0.00036410,-0.0011
 3845,-0.00407177,-0.00365489,-0.00002418,0.00017331,-0.00011333,-0.000
 39001,-0.00106383,-0.00188925,-0.21148515,0.36135266,-0.00841732,0.025
 17506,-0.00934996,0.00137335,-0.00215438,0.01061760,0.00003133,-0.0043
 5575,-0.00335553,-0.00231443,-0.00296210,-0.00278189,-0.01466176,-0.00
 238286,-0.04023579,-0.07297329,0.06646952,-0.23596163,0.00184673,-0.00
 065333,0.00045990,0.00016769,0.00004355,-0.00007932,-0.00031470,0.0006
 8812,-0.00083080,-0.00063614,0.00242747,0.00096321,0.00040261,-0.00087
 556,0.00013964,-0.00005231,-0.00089070,-0.00065396,-0.00122394,0.00836
 771,-0.00319235,-0.00066302,0.00073113,-0.00080212,0.00087181,-0.00026
 979,0.00268130,0.41399500,-0.47004280,1.04376795,0.00164165,-0.0037920
 9,0.00002767,-0.00118319,0.00045294,-0.00161775,0.00008001,0.00106370,
 0.00053828,-0.00025264,-0.00081189,0.00037739,0.00091566,0.00519953,0.
 00125048,0.00307462,0.00578954,-0.00893772,0.00012295,0.00012095,-0.00
 004908,0.00006980,0.00000177,-0.00000227,-0.00008952,0.00001126,-0.000
 12312,-0.00007257,-0.00113407,-0.00029948,-0.00008807,0.00048329,-0.00
 013054,0.00003652,0.00046539,0.00025335,0.00068403,-0.00219983,0.00076
 623,0.00012791,-0.00009239,0.00019402,-0.00090732,-0.00020409,-0.00079
 050,-0.17513934,0.16577271,-0.31770529,0.24313160,-0.00095375,0.004313
 33,-0.00113222,0.00070570,-0.00007622,0.00237826,0.00005028,-0.0014935
 9,-0.00070584,-0.00046917,0.00168787,-0.00027267,0.00127691,-0.0101779
 4,-0.00190885,0.00514250,0.00140082,0.01209391,-0.00002737,0.00012775,
 -0.00008654,0.00000096,0.00002076,-0.00002032,0.00009568,-0.00006794,0
 .00028688,-0.00015881,0.00101888,0.00019661,0.00016916,-0.00052124,0.0
 0019713,0.00003837,-0.00042880,-0.00014002,-0.00082410,0.00399046,-0.0
 0205418,-0.00043790,0.00040792,-0.00044941,0.00022449,0.00045545,0.002
 00827,0.16568556,-0.23561013,0.37927888,-0.22991448,0.32823576,0.00151
 807,-0.00929813,0.00042725,-0.00143834,0.00160237,-0.00397305,0.000010
 39,0.00221152,0.00129212,0.00052847,-0.00113338,0.00041937,-0.00059327
 ,0.00868443,0.00392432,-0.00925590,0.01394135,-0.01251512,-0.00012413,
 0.00034389,-0.00003976,-0.00000624,-0.00001721,0.00005044,-0.00007336,
 0.00003107,-0.00024369,0.00021466,-0.00263425,-0.00094492,-0.00028703,
 0.00109354,-0.00023079,0.00002507,0.00109699,0.00069867,0.00072199,-0.
 00431369,0.00124989,0.00025129,0.00000471,0.00030853,-0.00022731,0.000
 16263,-0.00173245,-0.31799375,0.37992220,-0.76600580,0.44552081,-0.526
 16915,1.07706492,0.00011395,0.00017838,-0.00008391,-0.00026375,-0.0000
 8674,0.00023194,0.00004728,-0.00008501,-0.00000468,-0.00017942,-0.0000
 0496,0.00001163,0.00000276,-0.00014925,-0.00000840,0.00424739,0.000498
 44,-0.00115600,0.00019197,0.00005982,-0.00006464,0.00001509,0.00000616
 ,-0.00000824,0.00001733,0.00000525,0.00000207,-0.00009928,0.00015036,0
 .00002402,0.00005172,-0.00006592,0.00002634,-0.00000845,-0.00006916,-0
 .00001675,-0.00009988,0.00009922,0.00003273,0.00004470,-0.00001243,-0.
 00001640,0.00019520,-0.00003322,-0.00009376,0.00281778,-0.00028552,0.0
 0027368,-0.07215212,0.05939597,-0.11879142,0.06505774,-0.00031220,0.00
 015443,-0.00091488,-0.00009118,0.00008590,-0.00004553,-0.00002214,0.00
 019111,0.00002356,0.00004151,-0.00000532,0.00021325,0.00022821,0.00008
 568,0.00068962,0.00061862,0.00477666,0.00183286,0.00004938,-0.00006647
 ,-0.00000730,0.00000345,-0.00000634,-0.00000289,0.00001364,-0.00002979
 ,0.00001660,0.00000949,-0.00005666,0.00003750,-0.00004054,0.00009311,-
 0.00008737,-0.00002361,0.00000882,-0.00005694,0.00005710,-0.00058749,0
 .00005467,0.00001407,0.00002989,-0.00001205,-0.00005441,0.00032893,-0.
 00015916,0.00032222,0.00331719,0.00140582,0.05878778,-0.09328315,0.134
 47113,-0.05960139,0.08496351,-0.00032682,0.00045651,-0.00053421,0.0002
 1432,-0.00002490,0.00025439,0.00002276,-0.00012594,0.00004097,0.000048
 77,0.00006630,-0.00000709,0.00017747,-0.00033958,0.00033323,-0.0011306
 2,0.00155630,0.00221368,-0.00007205,0.00002305,0.00002741,-0.00000909,
 0.00000446,-0.00000587,0.00000739,-0.00001230,0.00003367,-0.00004736,0
 .00043118,0.00000602,0.00003638,-0.00015217,0.00005961,0.00000828,-0.0
 0018213,-0.00008875,0.00006429,-0.00002132,0.00005093,-0.00001342,-0.0
 0005162,-0.00000673,-0.00015224,0.00001783,-0.00023657,0.00080262,-0.0
 0068602,0.00461956,-0.11927248,0.13649924,-0.29974991,0.11964179,-0.13
 745889,0.29298965\\0.00000023,-0.00000144,0.00000034,-0.00000039,0.000
 00162,-0.00000018,0.00000025,0.,0.00000034,0.00000004,-0.00000025,0.00
 000043,-0.00000028,-0.00000068,-0.00000101,0.00000105,0.00000222,0.000
 00045,-0.00000009,-0.00000004,0.00000032,0.00000007,0.00000040,0.00000
 023,-0.00000016,0.00000033,-0.00000017,0.00000016,-0.00000210,-0.00000
 039,0.00000005,0.00000094,0.00000075,0.00000004,0.00000076,0.00000130,
 0.00000011,0.00000005,-0.00000094,0.00000021,0.00000016,-0.00000061,-0
 .00000042,0.00000004,-0.00000022,-0.00000154,-0.00000129,-0.00000014,0
 .00000072,-0.00000004,-0.00000020,-0.00000004,-0.00000068,-0.00000029\
 \\@


          EVOLUTION
 IN THE BEGINNING GOD MADE MAN.
 HE WORKED THE DIRT WITH HIS HANDS.
 THEN GOD DECIDED TO GIVE MAN SCIENCE,
 MAN SHOULD BE USEFUL (LIKE AN APPLIANCE.)
 BUT SOON MAN'S KNOWLEDGE GREW TOO GREAT,
 TO THE HEADING SCIENCE HE COULDN'T RELATE
 SO GOD SAID "LETS HAVE DIFFERENT FIELDS,
 WE'LL DIVIDE THEM UP, SEE WHAT IT YIELDS."
 ENTER PHYSICS, CHEMISTRY, BIO
 THEY SPRANG UP AROUND THE NILE.
 BUT CHEMISTRY SURPASSED THE REST
 FAR AND AWAY IT WAS THE BEST.
 EXPERIMENT WAS GOD'S DECREE
 EXPERIMENT DID CHEMISTS WITH LOTS OF GLEE
 BUT SOON THEIR TESTS BEGAN TO BOG,
 THEY FOUND THEMSELVES DEEP IN A FOG.
 "GIVE US SOME HELP" THEY CRIED TO GOD.
 GOD LOOKED AROUND, THEN GAVE THE NOD.
 ENTER EINSTEIN, HEISENBERG, BOHR,
 REACTION PATHS WERE CLEAR ONCE MORE.
 WITH THEORISTS GOD SEND DIRECTION
 AND THEN HE STOPPED, HE'D MADE PERFECTION.
          -- THOMAS A. HOLME, 1981
 Job cpu time:  0 days 13 hours 30 minutes 15.9 seconds.
 File lengths (MBytes):  RWF=    344 Int=      0 D2E=      0 Chk=     16 Scr=      1
 Normal termination of Gaussian 09 at Mon Jan  9 14:59:21 2023.
