 Entering Gaussian System, Link 0=g09
 Initial command:
 /apps/software//g09/l1.exe /scratch/matheusmaximo/65018.cluster.abaxnet/Gau-9657.inp -scrdir=/scratch/matheusmaximo/65018.cluster.abaxnet/
 Entering Link 1 = /apps/software//g09/l1.exe PID=      9658.
  
 Copyright (c) 1988,1990,1992,1993,1995,1998,2003,2009, Gaussian, Inc.
                  All Rights Reserved.
  
 This is part of the Gaussian(R) 09 program.  It is based on
 the Gaussian(R) 03 system (copyright 2003, Gaussian, Inc.),
 the Gaussian(R) 98 system (copyright 1998, Gaussian, Inc.),
 the Gaussian(R) 94 system (copyright 1995, Gaussian, Inc.),
 the Gaussian 92(TM) system (copyright 1992, Gaussian, Inc.),
 the Gaussian 90(TM) system (copyright 1990, Gaussian, Inc.),
 the Gaussian 88(TM) system (copyright 1988, Gaussian, Inc.),
 the Gaussian 86(TM) system (copyright 1986, Carnegie Mellon
 University), and the Gaussian 82(TM) system (copyright 1983,
 Carnegie Mellon University). Gaussian is a federally registered
 trademark of Gaussian, Inc.
  
 This software contains proprietary and confidential information,
 including trade secrets, belonging to Gaussian, Inc.
  
 This software is provided under written license and may be
 used, copied, transmitted, or stored only in accord with that
 written license.
  
 The following legend is applicable only to US Government
 contracts under FAR:
  
                    RESTRICTED RIGHTS LEGEND
  
 Use, reproduction and disclosure by the US Government is
 subject to restrictions as set forth in subparagraphs (a)
 and (c) of the Commercial Computer Software - Restricted
 Rights clause in FAR 52.227-19.
  
 Gaussian, Inc.
 340 Quinnipiac St., Bldg. 40, Wallingford CT 06492
  
  
 ---------------------------------------------------------------
 Warning -- This program may not be used in any manner that
 competes with the business of Gaussian, Inc. or will provide
 assistance to any competitor of Gaussian, Inc.  The licensee
 of this program is prohibited from giving any competitor of
 Gaussian, Inc. access to this program.  By using this program,
 the user acknowledges that Gaussian, Inc. is engaged in the
 business of creating and licensing software in the field of
 computational chemistry and represents and warrants to the
 licensee that it is not a competitor of Gaussian, Inc. and that
 it will not use this program in any manner prohibited above.
 ---------------------------------------------------------------
  

 Cite this work as:
 Gaussian 09, Revision A.02,
 M. J. Frisch, G. W. Trucks, H. B. Schlegel, G. E. Scuseria, 
 M. A. Robb, J. R. Cheeseman, G. Scalmani, V. Barone, B. Mennucci, 
 G. A. Petersson, H. Nakatsuji, M. Caricato, X. Li, H. P. Hratchian, 
 A. F. Izmaylov, J. Bloino, G. Zheng, J. L. Sonnenberg, M. Hada, 
 M. Ehara, K. Toyota, R. Fukuda, J. Hasegawa, M. Ishida, T. Nakajima, 
 Y. Honda, O. Kitao, H. Nakai, T. Vreven, J. A. Montgomery, Jr., 
 J. E. Peralta, F. Ogliaro, M. Bearpark, J. J. Heyd, E. Brothers, 
 K. N. Kudin, V. N. Staroverov, R. Kobayashi, J. Normand, 
 K. Raghavachari, A. Rendell, J. C. Burant, S. S. Iyengar, J. Tomasi, 
 M. Cossi, N. Rega, J. M. Millam, M. Klene, J. E. Knox, J. B. Cross, 
 V. Bakken, C. Adamo, J. Jaramillo, R. Gomperts, R. E. Stratmann, 
 O. Yazyev, A. J. Austin, R. Cammi, C. Pomelli, J. W. Ochterski, 
 R. L. Martin, K. Morokuma, V. G. Zakrzewski, G. A. Voth, 
 P. Salvador, J. J. Dannenberg, S. Dapprich, A. D. Daniels, 
 O. Farkas, J. B. Foresman, J. V. Ortiz, J. Cioslowski, 
 and D. J. Fox, Gaussian, Inc., Wallingford CT, 2009.
 
 ******************************************
 Gaussian 09:  EM64L-G09RevA.02 11-Jun-2009
                10-Feb-2023 
 ******************************************
 %chk=/home/matheusmaximo/Gaussian/substituent/br/br_s0.chk
 ---------------------------------------------------
 # opt=tight freq cam-b3lyp/gen scf=qc int=ultrafine
 ---------------------------------------------------
 1/7=10,14=-1,18=20,19=15,26=3,38=1/1,3;
 2/9=110,12=2,17=6,18=5,40=1/2;
 3/5=7,11=2,16=1,25=1,30=1,71=1,74=-40,75=-5/1,2,3;
 4//1;
 5/5=2,8=3,38=5/8;
 6/7=2,8=2,9=2,10=2,28=1/1;
 7//1,2,3,16;
 1/7=10,14=-1,18=20,19=15/3(2);
 2/9=110/2;
 99//99;
 2/9=110/2;
 3/5=7,6=1,11=2,16=1,25=1,30=1,71=1,74=-40,75=-5,82=7/1,2,3;
 4/5=5,16=3/1;
 5/5=2,8=3,38=5/8;
 7//1,2,3,16;
 1/7=10,14=-1,18=20,19=15/3(-5);
 2/9=110/2;
 6/7=2,8=2,9=2,10=2,19=2,28=1/1;
 99/9=1/99;
 --------------------------
 NA+Br CAM-B3LYP def2-TZVPD
 --------------------------
 Symbolic Z-matrix:
 Charge =  0 Multiplicity = 1
 C                    -1.22053  -0.18724   0. 
 C                    -0.38069  -1.29017   0.00057 
 C                    -0.88266  -2.57771   0.00147 
 C                    -2.247    -2.77352  -0.00062 
 C                    -3.12908  -1.69168  -0.00335 
 C                    -2.56677  -0.41276  -0.00157 
 H                    -0.82374   0.81635   0.00313 
 H                    -0.19893  -3.41243   0.00321 
 H                    -2.64765  -3.77872  -0.00463 
 N                     1.06034  -1.0779    0.00311 
 O                     1.77791  -2.05813   0.00628 
 O                     1.46377   0.06835   0.00219 
 N                    -4.48492  -1.83918  -0.04298 
 H                    -4.88143  -2.73312   0.18331 
 H                    -5.05725  -1.03465   0.14282 
 Br                   -3.54312   0.77815   0.0057 
 

 GradGradGradGradGradGradGradGradGradGradGradGradGradGradGradGradGradGrad
 Berny optimization.
 Initialization pass.
                           ----------------------------
                           !    Initial Parameters    !
                           ! (Angstroms and Degrees)  !
 --------------------------                            --------------------------
 ! Name  Definition              Value          Derivative Info.                !
 --------------------------------------------------------------------------------
 ! R1    R(1,2)                  1.3863         estimate D2E/DX2                !
 ! R2    R(1,6)                  1.365          estimate D2E/DX2                !
 ! R3    R(1,7)                  1.0792         estimate D2E/DX2                !
 ! R4    R(2,3)                  1.3819         estimate D2E/DX2                !
 ! R5    R(2,10)                 1.4566         estimate D2E/DX2                !
 ! R6    R(3,4)                  1.3783         estimate D2E/DX2                !
 ! R7    R(3,8)                  1.079          estimate D2E/DX2                !
 ! R8    R(4,5)                  1.3959         estimate D2E/DX2                !
 ! R9    R(4,9)                  1.0821         estimate D2E/DX2                !
 ! R10   R(5,6)                  1.3971         estimate D2E/DX2                !
 ! R11   R(5,13)                 1.3644         estimate D2E/DX2                !
 ! R12   R(6,16)                 1.54           estimate D2E/DX2                !
 ! R13   R(10,11)                1.2148         estimate D2E/DX2                !
 ! R14   R(10,12)                1.2152         estimate D2E/DX2                !
 ! R15   R(13,14)                1.0038         estimate D2E/DX2                !
 ! R16   R(13,15)                1.0047         estimate D2E/DX2                !
 ! A1    A(2,1,6)              117.7778         estimate D2E/DX2                !
 ! A2    A(2,1,7)              121.1396         estimate D2E/DX2                !
 ! A3    A(6,1,7)              121.0824         estimate D2E/DX2                !
 ! A4    A(1,2,3)              121.4129         estimate D2E/DX2                !
 ! A5    A(1,2,10)             118.9081         estimate D2E/DX2                !
 ! A6    A(3,2,10)             119.6789         estimate D2E/DX2                !
 ! A7    A(2,3,4)              119.4666         estimate D2E/DX2                !
 ! A8    A(2,3,8)              119.3791         estimate D2E/DX2                !
 ! A9    A(4,3,8)              121.1542         estimate D2E/DX2                !
 ! A10   A(3,4,5)              121.0249         estimate D2E/DX2                !
 ! A11   A(3,4,9)              119.8986         estimate D2E/DX2                !
 ! A12   A(5,4,9)              119.076          estimate D2E/DX2                !
 ! A13   A(4,5,6)              117.0738         estimate D2E/DX2                !
 ! A14   A(4,5,13)             122.972          estimate D2E/DX2                !
 ! A15   A(6,5,13)             119.9306         estimate D2E/DX2                !
 ! A16   A(1,6,5)              123.2437         estimate D2E/DX2                !
 ! A17   A(1,6,16)             119.8355         estimate D2E/DX2                !
 ! A18   A(5,6,16)             116.9201         estimate D2E/DX2                !
 ! A19   A(2,10,11)            117.826          estimate D2E/DX2                !
 ! A20   A(2,10,12)            117.769          estimate D2E/DX2                !
 ! A21   A(11,10,12)           124.405          estimate D2E/DX2                !
 ! A22   A(5,13,14)            118.8327         estimate D2E/DX2                !
 ! A23   A(5,13,15)            118.3046         estimate D2E/DX2                !
 ! A24   A(14,13,15)           116.5164         estimate D2E/DX2                !
 ! D1    D(6,1,2,3)             -0.0914         estimate D2E/DX2                !
 ! D2    D(6,1,2,10)          -179.9605         estimate D2E/DX2                !
 ! D3    D(7,1,2,3)            179.7621         estimate D2E/DX2                !
 ! D4    D(7,1,2,10)            -0.107          estimate D2E/DX2                !
 ! D5    D(2,1,6,5)             -0.0365         estimate D2E/DX2                !
 ! D6    D(2,1,6,16)           179.6588         estimate D2E/DX2                !
 ! D7    D(7,1,6,5)           -179.89           estimate D2E/DX2                !
 ! D8    D(7,1,6,16)            -0.1948         estimate D2E/DX2                !
 ! D9    D(1,2,3,4)              0.116          estimate D2E/DX2                !
 ! D10   D(1,2,3,8)           -179.9196         estimate D2E/DX2                !
 ! D11   D(10,2,3,4)           179.9841         estimate D2E/DX2                !
 ! D12   D(10,2,3,8)            -0.0515         estimate D2E/DX2                !
 ! D13   D(1,2,10,11)          179.8556         estimate D2E/DX2                !
 ! D14   D(1,2,10,12)           -0.1305         estimate D2E/DX2                !
 ! D15   D(3,2,10,11)           -0.0158         estimate D2E/DX2                !
 ! D16   D(3,2,10,12)          179.9981         estimate D2E/DX2                !
 ! D17   D(2,3,4,5)             -0.013          estimate D2E/DX2                !
 ! D18   D(2,3,4,9)            179.7128         estimate D2E/DX2                !
 ! D19   D(8,3,4,5)           -179.9767         estimate D2E/DX2                !
 ! D20   D(8,3,4,9)             -0.2509         estimate D2E/DX2                !
 ! D21   D(3,4,5,6)             -0.1061         estimate D2E/DX2                !
 ! D22   D(3,4,5,13)           178.1226         estimate D2E/DX2                !
 ! D23   D(9,4,5,6)           -179.8341         estimate D2E/DX2                !
 ! D24   D(9,4,5,13)            -1.6054         estimate D2E/DX2                !
 ! D25   D(4,5,6,1)              0.133          estimate D2E/DX2                !
 ! D26   D(4,5,6,16)          -179.5704         estimate D2E/DX2                !
 ! D27   D(13,5,6,1)          -178.1523         estimate D2E/DX2                !
 ! D28   D(13,5,6,16)            2.1442         estimate D2E/DX2                !
 ! D29   D(4,5,13,14)           16.8153         estimate D2E/DX2                !
 ! D30   D(4,5,13,15)          167.8967         estimate D2E/DX2                !
 ! D31   D(6,5,13,14)         -165.0047         estimate D2E/DX2                !
 ! D32   D(6,5,13,15)          -13.9232         estimate D2E/DX2                !
 --------------------------------------------------------------------------------
 Trust Radius=3.00D-01 FncErr=1.00D-07 GrdErr=1.00D-06
 Number of steps in this run=  82 maximum allowed number of steps= 100.
 GradGradGradGradGradGradGradGradGradGradGradGradGradGradGradGradGradGrad

                          Input orientation:                          
 ---------------------------------------------------------------------
 Center     Atomic      Atomic             Coordinates (Angstroms)
 Number     Number       Type             X           Y           Z
 ---------------------------------------------------------------------
      1          6           0       -1.220527   -0.187240    0.000000
      2          6           0       -0.380691   -1.290173    0.000568
      3          6           0       -0.882663   -2.577709    0.001469
      4          6           0       -2.246998   -2.773521   -0.000618
      5          6           0       -3.129076   -1.691685   -0.003354
      6          6           0       -2.566768   -0.412762   -0.001566
      7          1           0       -0.823736    0.816351    0.003132
      8          1           0       -0.198927   -3.412431    0.003210
      9          1           0       -2.647648   -3.778721   -0.004632
     10          7           0        1.060345   -1.077902    0.003115
     11          8           0        1.777910   -2.058131    0.006279
     12          8           0        1.463767    0.068353    0.002190
     13          7           0       -4.484923   -1.839175   -0.042981
     14          1           0       -4.881426   -2.733122    0.183307
     15          1           0       -5.057252   -1.034648    0.142822
     16         35           0       -3.543122    0.778153    0.005700
 ---------------------------------------------------------------------
                    Distance matrix (angstroms):
                    1          2          3          4          5
     1  C    0.000000
     2  C    1.386285   0.000000
     3  C    2.414228   1.381929   0.000000
     4  C    2.782533   2.383993   1.378316   0.000000
     5  C    2.430211   2.777562   2.414836   1.395865   0.000000
     6  C    1.365001   2.355587   2.742848   2.382317   1.397081
     7  H    1.079189   2.152612   3.394572   3.861718   3.406593
     8  H    3.383125   2.130029   1.079008   2.145417   3.398056
     9  H    3.864639   3.366303   2.134863   1.082111   2.141844
    10  N    2.448605   1.456588   2.454527   3.716672   4.234149
    11  O    3.534246   2.291145   2.710836   4.087996   4.920659
    12  O    2.696436   2.290768   3.536578   4.673974   4.918533
    13  N    3.658827   4.141017   3.677456   2.425511   1.364421
    14  H    4.462880   4.729917   4.005912   2.641150   2.046990
    15  H    3.931788   4.685697   4.452888   3.307836   2.042285
    16  Br   2.515247   3.778753   4.282508   3.780789   2.504319
                    6          7          8          9         10
     6  C    0.000000
     7  H    2.132816   0.000000
     8  H    3.821610   4.274691   0.000000
     9  H    3.366932   4.943825   2.475977   0.000000
    10  N    3.687598   2.671695   2.652506   4.587341   0.000000
    11  O    4.645807   3.877011   2.396251   4.748274   1.214808
    12  O    4.059150   2.406693   3.857513   5.630609   1.215175
    13  N    2.390750   4.523078   4.565854   2.671870   5.597468
    14  H    3.282665   5.394078   4.734944   2.473533   6.170646
    15  H    2.571012   4.622593   5.410791   3.654842   6.119345
    16  Br   1.540000   2.719656   5.361403   4.644037   4.963553
                   11         12         13         14         15
    11  O    0.000000
    12  O    2.149567   0.000000
    13  N    6.266852   6.247209   0.000000
    14  H    6.695798   6.938483   1.003774   0.000000
    15  H    6.912713   6.615140   1.004663   1.708030   0.000000
    16  Br   6.029750   5.056953   2.782043   3.761868   2.365933
                   16
    16  Br   0.000000
 Stoichiometry    C6H5BrN2O2
 Framework group  C1[X(C6H5BrN2O2)]
 Deg. of freedom    42
 Full point group                 C1      NOp   1
 Largest Abelian subgroup         C1      NOp   1
 Largest concise Abelian subgroup C1      NOp   1
                         Standard orientation:                         
 ---------------------------------------------------------------------
 Center     Atomic      Atomic             Coordinates (Angstroms)
 Number     Number       Type             X           Y           Z
 ---------------------------------------------------------------------
      1          6           0       -0.479773   -0.664501   -0.002783
      2          6           0       -1.599423    0.152915   -0.002215
      3          6           0       -1.485735    1.530159   -0.001315
      4          6           0       -0.234006    2.107157   -0.003401
      5          6           0        0.920109    1.322014   -0.006137
      6          6           0        0.746136   -0.064192   -0.004349
      7          1           0       -0.573680   -1.739592    0.000349
      8          1           0       -2.379238    2.135062    0.000426
      9          1           0       -0.136860    3.184891   -0.007415
     10          7           0       -2.919967   -0.461745    0.000331
     11          8           0       -3.887414    0.272962    0.003496
     12          8           0       -2.979519   -1.675459   -0.000593
     13          7           0        2.177492    1.850277   -0.045764
     14          1           0        2.302412    2.820200    0.180524
     15          1           0        2.955604    1.242523    0.140039
     16         35           0        2.021734   -0.926976    0.002917
 ---------------------------------------------------------------------
 Rotational constants (GHZ):      1.6929364      0.5108580      0.3924860
 General basis read from cards:  (5D, 7F)
 There are   478 symmetry adapted basis functions of A   symmetry.
 Integral buffers will be    131072 words long.
 Raffenetti 2 integral format.
 Two-electron integral symmetry is turned on.
   478 basis functions,   765 primitive gaussians,   546 cartesian basis functions
    53 alpha electrons       53 beta electrons
       nuclear repulsion energy       884.7986926861 Hartrees.
 NAtoms=   16 NActive=   16 NUniq=   16 SFac= 7.50D-01 NAtFMM=   80 NAOKFM=F Big=F
 One-electron integrals computed using PRISM.
 NBasis=   478 RedAO= T  NBF=   478
 NBsUse=   477 1.00D-06 NBFU=   477
 Harris functional with IExCor=20419 diagonalized for initial guess.
 ExpMin= 2.90D-02 ExpMax= 5.65D+05 ExpMxC= 5.46D+03 IAcc=3 IRadAn=         5 AccDes= 0.00D+00
 HarFok:  IExCor=20419 AccDes= 0.00D+00 IRadAn=         5 IDoV= 1
 ScaDFX=  1.000000  1.000000  1.000000  1.000000
 FoFCou: FMM=F IPFlag=           0 FMFlag=      100000 FMFlg1=           0
         NFxFlg=           0 DoJE=T BraDBF=F KetDBF=T FulRan=T
         Omega=  0.000000  0.000000  1.000000  0.000000  0.000000 ICntrl=     500 IOpCl=  0
         NMat0=    1 NMatS0=    1 NMatT0=    0 NMatD0=    1 NMtDS0=    0 NMtDT0=    0
         I1Cent=           4 NGrid=           0.
 Petite list used in FoFCou.
 Initial guess orbital symmetries:
       Occupied  (A) (A) (A) (A) (A) (A) (A) (A) (A) (A) (A) (A)
                 (A) (A) (A) (A) (A) (A) (A) (A) (A) (A) (A) (A)
                 (A) (A) (A) (A) (A) (A) (A) (A) (A) (A) (A) (A)
                 (A) (A) (A) (A) (A) (A) (A) (A) (A) (A) (A) (A)
                 (A) (A) (A) (A) (A)
       Virtual   (A) (A) (A) (A) (A) (A) (A) (A) (A) (A) (A) (A)
                 (A) (A) (A) (A) (A) (A) (A) (A) (A) (A) (A) (A)
                 (A) (A) (A) (A) (A) (A) (A) (A) (A) (A) (A) (A)
                 (A) (A) (A) (A) (A) (A) (A) (A) (A) (A) (A) (A)
                 (A) (A) (A) (A) (A) (A) (A) (A) (A) (A) (A) (A)
                 (A) (A) (A) (A) (A) (A) (A) (A) (A) (A) (A) (A)
                 (A) (A) (A) (A) (A) (A) (A) (A) (A) (A) (A) (A)
                 (A) (A) (A) (A) (A) (A) (A) (A) (A) (A) (A) (A)
                 (A) (A) (A) (A) (A) (A) (A) (A) (A) (A) (A) (A)
                 (A) (A) (A) (A) (A) (A) (A) (A) (A) (A) (A) (A)
                 (A) (A) (A) (A) (A) (A) (A) (A) (A) (A) (A) (A)
                 (A) (A) (A) (A) (A) (A) (A) (A) (A) (A) (A) (A)
                 (A) (A) (A) (A) (A) (A) (A) (A) (A) (A) (A) (A)
                 (A) (A) (A) (A) (A) (A) (A) (A) (A) (A) (A) (A)
                 (A) (A) (A) (A) (A) (A) (A) (A) (A) (A) (A) (A)
                 (A) (A) (A) (A) (A) (A) (A) (A) (A) (A) (A) (A)
                 (A) (A) (A) (A) (A) (A) (A) (A) (A) (A) (A) (A)
                 (A) (A) (A) (A) (A) (A) (A) (A) (A) (A) (A) (A)
                 (A) (A) (A) (A) (A) (A) (A) (A) (A) (A) (A) (A)
                 (A) (A) (A) (A) (A) (A) (A) (A) (A) (A) (A) (A)
                 (A) (A) (A) (A) (A) (A) (A) (A) (A) (A) (A) (A)
                 (A) (A) (A) (A) (A) (A) (A) (A) (A) (A) (A) (A)
                 (A) (A) (A) (A) (A) (A) (A) (A) (A) (A) (A) (A)
                 (A) (A) (A) (A) (A) (A) (A) (A) (A) (A) (A) (A)
                 (A) (A) (A) (A) (A) (A) (A) (A) (A) (A) (A) (A)
                 (A) (A) (A) (A) (A) (A) (A) (A) (A) (A) (A) (A)
                 (A) (A) (A) (A) (A) (A) (A) (A) (A) (A) (A) (A)
                 (A) (A) (A) (A) (A) (A) (A) (A) (A) (A) (A) (A)
                 (A) (A) (A) (A) (A) (A) (A) (A) (A) (A) (A) (A)
                 (A) (A) (A) (A) (A) (A) (A) (A) (A) (A) (A) (A)
                 (A) (A) (A) (A) (A) (A) (A) (A) (A) (A) (A) (A)
                 (A) (A) (A) (A) (A) (A) (A) (A) (A) (A) (A) (A)
                 (A) (A) (A) (A) (A) (A) (A) (A) (A) (A) (A) (A)
                 (A) (A) (A) (A) (A) (A) (A) (A) (A) (A) (A) (A)
                 (A) (A) (A) (A) (A) (A) (A) (A) (A) (A) (A) (A)
                 (A) (A) (A) (A)
 The electronic state of the initial guess is 1-A.
 FoFJK:  IHMeth= 1 ICntrl=     0 DoSepK=T KAlg= 1 I1Cent= 0 FoldK=F
 Gradient too large for Newton-Raphson -- use scaled steepest descent instead.
 FoFJK:  IHMeth= 1 ICntrl=     0 DoSepK=T KAlg= 1 I1Cent= 0 FoldK=F
 FoFJK:  IHMeth= 1 ICntrl=     0 DoSepK=T KAlg= 1 I1Cent= 0 FoldK=F
 FoFJK:  IHMeth= 1 ICntrl=     0 DoSepK=T KAlg= 1 I1Cent= 0 FoldK=F
 FoFJK:  IHMeth= 1 ICntrl=     0 DoSepK=T KAlg= 1 I1Cent= 0 FoldK=F
 Gradient too large for Newton-Raphson -- use scaled steepest descent instead.
 FoFJK:  IHMeth= 1 ICntrl=     0 DoSepK=T KAlg= 1 I1Cent= 0 FoldK=F
 FoFJK:  IHMeth= 1 ICntrl=     0 DoSepK=T KAlg= 1 I1Cent= 0 FoldK=F
 FoFJK:  IHMeth= 1 ICntrl=     0 DoSepK=T KAlg= 1 I1Cent= 0 FoldK=F
 FoFJK:  IHMeth= 1 ICntrl=     0 DoSepK=T KAlg= 1 I1Cent= 0 FoldK=F
 Gradient too large for Newton-Raphson -- use scaled steepest descent instead.
 FoFJK:  IHMeth= 1 ICntrl=     0 DoSepK=T KAlg= 1 I1Cent= 0 FoldK=F
 FoFJK:  IHMeth= 1 ICntrl=     0 DoSepK=T KAlg= 1 I1Cent= 0 FoldK=F
 FoFJK:  IHMeth= 1 ICntrl=     0 DoSepK=T KAlg= 1 I1Cent= 0 FoldK=F
 Gradient too large for Newton-Raphson -- use scaled steepest descent instead.
 FoFJK:  IHMeth= 1 ICntrl=     0 DoSepK=T KAlg= 1 I1Cent= 0 FoldK=F
 FoFJK:  IHMeth= 1 ICntrl=     0 DoSepK=T KAlg= 1 I1Cent= 0 FoldK=F
 FoFJK:  IHMeth= 1 ICntrl=     0 DoSepK=T KAlg= 1 I1Cent= 0 FoldK=F
 Gradient too large for Newton-Raphson -- use scaled steepest descent instead.
 FoFJK:  IHMeth= 1 ICntrl=     0 DoSepK=T KAlg= 1 I1Cent= 0 FoldK=F
 FoFJK:  IHMeth= 1 ICntrl=     0 DoSepK=T KAlg= 1 I1Cent= 0 FoldK=F
 FoFJK:  IHMeth= 1 ICntrl=     0 DoSepK=T KAlg= 1 I1Cent= 0 FoldK=F
 Gradient too large for Newton-Raphson -- use scaled steepest descent instead.
 FoFJK:  IHMeth= 1 ICntrl=     0 DoSepK=T KAlg= 1 I1Cent= 0 FoldK=F
 FoFJK:  IHMeth= 1 ICntrl=     0 DoSepK=T KAlg= 1 I1Cent= 0 FoldK=F
 FoFJK:  IHMeth= 1 ICntrl=     0 DoSepK=T KAlg= 1 I1Cent= 0 FoldK=F
 LinEq1:  Iter=  0 NonCon=     1 RMS=5.91D-05 Max=3.72D-03
 AX will form     1 AO Fock derivatives at one time.
 FoFJK:  IHMeth= 1 ICntrl=     0 DoSepK=T KAlg= 1 I1Cent= 0 FoldK=F
 LinEq1:  Iter=  1 NonCon=     1 RMS=7.02D-05 Max=5.24D-03
 FoFJK:  IHMeth= 1 ICntrl=     0 DoSepK=T KAlg= 1 I1Cent= 0 FoldK=F
 LinEq1:  Iter=  2 NonCon=     1 RMS=1.86D-05 Max=1.07D-03
 FoFJK:  IHMeth= 1 ICntrl=     0 DoSepK=T KAlg= 1 I1Cent= 0 FoldK=F
 LinEq1:  Iter=  3 NonCon=     1 RMS=1.47D-05 Max=6.80D-04
 FoFJK:  IHMeth= 1 ICntrl=     0 DoSepK=T KAlg= 1 I1Cent= 0 FoldK=F
 LinEq1:  Iter=  4 NonCon=     1 RMS=2.89D-06 Max=1.54D-04
 FoFJK:  IHMeth= 1 ICntrl=     0 DoSepK=T KAlg= 1 I1Cent= 0 FoldK=F
 LinEq1:  Iter=  5 NonCon=     1 RMS=2.19D-06 Max=1.48D-04
 FoFJK:  IHMeth= 1 ICntrl=     0 DoSepK=T KAlg= 1 I1Cent= 0 FoldK=F
 LinEq1:  Iter=  6 NonCon=     1 RMS=5.16D-07 Max=2.24D-05
 FoFJK:  IHMeth= 1 ICntrl=     0 DoSepK=T KAlg= 1 I1Cent= 0 FoldK=F
 LinEq1:  Iter=  7 NonCon=     1 RMS=4.41D-07 Max=2.33D-05
 FoFJK:  IHMeth= 1 ICntrl=     0 DoSepK=T KAlg= 1 I1Cent= 0 FoldK=F
 LinEq1:  Iter=  8 NonCon=     1 RMS=1.02D-07 Max=5.36D-06
 FoFJK:  IHMeth= 1 ICntrl=     0 DoSepK=T KAlg= 1 I1Cent= 0 FoldK=F
 LinEq1:  Iter=  9 NonCon=     1 RMS=6.19D-08 Max=1.75D-06
 FoFJK:  IHMeth= 1 ICntrl=     0 DoSepK=T KAlg= 1 I1Cent= 0 FoldK=F
 LinEq1:  Iter= 10 NonCon=     1 RMS=2.52D-08 Max=1.94D-06
 FoFJK:  IHMeth= 1 ICntrl=     0 DoSepK=T KAlg= 1 I1Cent= 0 FoldK=F
 LinEq1:  Iter= 11 NonCon=     1 RMS=8.52D-09 Max=4.70D-07
 FoFJK:  IHMeth= 1 ICntrl=     0 DoSepK=T KAlg= 1 I1Cent= 0 FoldK=F
 LinEq1:  Iter= 12 NonCon=     1 RMS=4.56D-09 Max=2.32D-07
 FoFJK:  IHMeth= 1 ICntrl=     0 DoSepK=T KAlg= 1 I1Cent= 0 FoldK=F
 LinEq1:  Iter= 13 NonCon=     0 RMS=2.03D-09 Max=6.88D-08
 Linear equations converged to 2.120D-08 2.120D-07 after    13 iterations.
 FoFJK:  IHMeth= 1 ICntrl=     0 DoSepK=T KAlg= 1 I1Cent= 0 FoldK=F
 FoFJK:  IHMeth= 1 ICntrl=     0 DoSepK=T KAlg= 1 I1Cent= 0 FoldK=F
 FoFJK:  IHMeth= 1 ICntrl=     0 DoSepK=T KAlg= 1 I1Cent= 0 FoldK=F
 LinEq1:  Iter=  0 NonCon=     1 RMS=3.15D-07 Max=1.53D-05
 FoFJK:  IHMeth= 1 ICntrl=     0 DoSepK=T KAlg= 1 I1Cent= 0 FoldK=F
 LinEq1:  Iter=  1 NonCon=     1 RMS=1.59D-07 Max=8.11D-06
 FoFJK:  IHMeth= 1 ICntrl=     0 DoSepK=T KAlg= 1 I1Cent= 0 FoldK=F
 LinEq1:  Iter=  2 NonCon=     1 RMS=6.86D-08 Max=4.48D-06
 FoFJK:  IHMeth= 1 ICntrl=     0 DoSepK=T KAlg= 1 I1Cent= 0 FoldK=F
 LinEq1:  Iter=  3 NonCon=     1 RMS=4.17D-08 Max=1.83D-06
 FoFJK:  IHMeth= 1 ICntrl=     0 DoSepK=T KAlg= 1 I1Cent= 0 FoldK=F
 LinEq1:  Iter=  4 NonCon=     1 RMS=3.22D-08 Max=2.59D-06
 FoFJK:  IHMeth= 1 ICntrl=     0 DoSepK=T KAlg= 1 I1Cent= 0 FoldK=F
 LinEq1:  Iter=  5 NonCon=     1 RMS=2.13D-08 Max=1.44D-06
 FoFJK:  IHMeth= 1 ICntrl=     0 DoSepK=T KAlg= 1 I1Cent= 0 FoldK=F
 LinEq1:  Iter=  6 NonCon=     1 RMS=1.34D-08 Max=7.12D-07
 FoFJK:  IHMeth= 1 ICntrl=     0 DoSepK=T KAlg= 1 I1Cent= 0 FoldK=F
 LinEq1:  Iter=  7 NonCon=     1 RMS=5.21D-09 Max=2.95D-07
 FoFJK:  IHMeth= 1 ICntrl=     0 DoSepK=T KAlg= 1 I1Cent= 0 FoldK=F
 LinEq1:  Iter=  8 NonCon=     1 RMS=3.40D-09 Max=2.37D-07
 FoFJK:  IHMeth= 1 ICntrl=     0 DoSepK=T KAlg= 1 I1Cent= 0 FoldK=F
 LinEq1:  Iter=  9 NonCon=     1 RMS=1.64D-09 Max=1.02D-07
 FoFJK:  IHMeth= 1 ICntrl=     0 DoSepK=T KAlg= 1 I1Cent= 0 FoldK=F
 LinEq1:  Iter= 10 NonCon=     1 RMS=6.68D-10 Max=2.07D-08
 FoFJK:  IHMeth= 1 ICntrl=     0 DoSepK=T KAlg= 1 I1Cent= 0 FoldK=F
 LinEq1:  Iter= 11 NonCon=     1 RMS=3.39D-10 Max=1.05D-08
 FoFJK:  IHMeth= 1 ICntrl=     0 DoSepK=T KAlg= 1 I1Cent= 0 FoldK=F
 LinEq1:  Iter= 12 NonCon=     1 RMS=1.39D-10 Max=5.37D-09
 FoFJK:  IHMeth= 1 ICntrl=     0 DoSepK=T KAlg= 1 I1Cent= 0 FoldK=F
 LinEq1:  Iter= 13 NonCon=     0 RMS=7.13D-11 Max=2.10D-09
 Linear equations converged to 5.278D-10 5.278D-09 after    13 iterations.
 FoFJK:  IHMeth= 1 ICntrl=     0 DoSepK=T KAlg= 1 I1Cent= 0 FoldK=F
 SCF Done:  E(RCAM-B3LYP) =  -3065.67896829     a.u. after    9 cycles
            Convg  =    0.3327D-08                    51 Fock formations.
              S**2 =  0.0000                  -V/T =  2.0015

 **********************************************************************

            Population analysis using the SCF density.

 **********************************************************************

 Orbital symmetries:
       Occupied  (A) (A) (A) (A) (A) (A) (A) (A) (A) (A) (A) (A)
                 (A) (A) (A) (A) (A) (A) (A) (A) (A) (A) (A) (A)
                 (A) (A) (A) (A) (A) (A) (A) (A) (A) (A) (A) (A)
                 (A) (A) (A) (A) (A) (A) (A) (A) (A) (A) (A) (A)
                 (A) (A) (A) (A) (A)
       Virtual   (A) (A) (A) (A) (A) (A) (A) (A) (A) (A) (A) (A)
                 (A) (A) (A) (A) (A) (A) (A) (A) (A) (A) (A) (A)
                 (A) (A) (A) (A) (A) (A) (A) (A) (A) (A) (A) (A)
                 (A) (A) (A) (A) (A) (A) (A) (A) (A) (A) (A) (A)
                 (A) (A) (A) (A) (A) (A) (A) (A) (A) (A) (A) (A)
                 (A) (A) (A) (A) (A) (A) (A) (A) (A) (A) (A) (A)
                 (A) (A) (A) (A) (A) (A) (A) (A) (A) (A) (A) (A)
                 (A) (A) (A) (A) (A) (A) (A) (A) (A) (A) (A) (A)
                 (A) (A) (A) (A) (A) (A) (A) (A) (A) (A) (A) (A)
                 (A) (A) (A) (A) (A) (A) (A) (A) (A) (A) (A) (A)
                 (A) (A) (A) (A) (A) (A) (A) (A) (A) (A) (A) (A)
                 (A) (A) (A) (A) (A) (A) (A) (A) (A) (A) (A) (A)
                 (A) (A) (A) (A) (A) (A) (A) (A) (A) (A) (A) (A)
                 (A) (A) (A) (A) (A) (A) (A) (A) (A) (A) (A) (A)
                 (A) (A) (A) (A) (A) (A) (A) (A) (A) (A) (A) (A)
                 (A) (A) (A) (A) (A) (A) (A) (A) (A) (A) (A) (A)
                 (A) (A) (A) (A) (A) (A) (A) (A) (A) (A) (A) (A)
                 (A) (A) (A) (A) (A) (A) (A) (A) (A) (A) (A) (A)
                 (A) (A) (A) (A) (A) (A) (A) (A) (A) (A) (A) (A)
                 (A) (A) (A) (A) (A) (A) (A) (A) (A) (A) (A) (A)
                 (A) (A) (A) (A) (A) (A) (A) (A) (A) (A) (A) (A)
                 (A) (A) (A) (A) (A) (A) (A) (A) (A) (A) (A) (A)
                 (A) (A) (A) (A) (A) (A) (A) (A) (A) (A) (A) (A)
                 (A) (A) (A) (A) (A) (A) (A) (A) (A) (A) (A) (A)
                 (A) (A) (A) (A) (A) (A) (A) (A) (A) (A) (A) (A)
                 (A) (A) (A) (A) (A) (A) (A) (A) (A) (A) (A) (A)
                 (A) (A) (A) (A) (A) (A) (A) (A) (A) (A) (A) (A)
                 (A) (A) (A) (A) (A) (A) (A) (A) (A) (A) (A) (A)
                 (A) (A) (A) (A) (A) (A) (A) (A) (A) (A) (A) (A)
                 (A) (A) (A) (A) (A) (A) (A) (A) (A) (A) (A) (A)
                 (A) (A) (A) (A) (A) (A) (A) (A) (A) (A) (A) (A)
                 (A) (A) (A) (A) (A) (A) (A) (A) (A) (A) (A) (A)
                 (A) (A) (A) (A) (A) (A) (A) (A) (A) (A) (A) (A)
                 (A) (A) (A) (A) (A) (A) (A) (A) (A) (A) (A) (A)
                 (A) (A) (A) (A) (A) (A) (A) (A) (A) (A) (A) (A)
                 (A) (A) (A) (A)
 The electronic state is 1-A.
 Alpha  occ. eigenvalues -- -482.94633 -62.59138 -56.40805 -56.40607 -56.40572
 Alpha  occ. eigenvalues --  -19.22915 -19.22909 -14.63083 -14.42946 -10.32637
 Alpha  occ. eigenvalues --  -10.30586 -10.30037 -10.27961 -10.27771 -10.27297
 Alpha  occ. eigenvalues --   -8.79830  -6.62917  -6.61932  -6.61832  -2.74793
 Alpha  occ. eigenvalues --   -2.74327  -2.74255  -2.73469  -2.73467  -1.32188
 Alpha  occ. eigenvalues --   -1.14193  -1.07455  -1.00888  -0.96433  -0.88071
 Alpha  occ. eigenvalues --   -0.83236  -0.78354  -0.72781  -0.67129  -0.64371
 Alpha  occ. eigenvalues --   -0.63734  -0.61940  -0.61848  -0.58730  -0.55487
 Alpha  occ. eigenvalues --   -0.54287  -0.53299  -0.52495  -0.50600  -0.44723
 Alpha  occ. eigenvalues --   -0.43440  -0.41958  -0.38645  -0.37949  -0.36998
 Alpha  occ. eigenvalues --   -0.36425  -0.32069  -0.28503
 Alpha virt. eigenvalues --   -0.04412  -0.00114   0.01268   0.02602   0.03463
 Alpha virt. eigenvalues --    0.04638   0.05169   0.05443   0.05664   0.06907
 Alpha virt. eigenvalues --    0.08463   0.09071   0.10380   0.10472   0.11583
 Alpha virt. eigenvalues --    0.12136   0.12732   0.13432   0.13944   0.14218
 Alpha virt. eigenvalues --    0.15154   0.15458   0.16132   0.17246   0.18268
 Alpha virt. eigenvalues --    0.18676   0.18729   0.19371   0.19635   0.20430
 Alpha virt. eigenvalues --    0.21552   0.21908   0.22537   0.23017   0.23755
 Alpha virt. eigenvalues --    0.24052   0.24280   0.25136   0.25842   0.26370
 Alpha virt. eigenvalues --    0.26933   0.27147   0.27447   0.28366   0.28702
 Alpha virt. eigenvalues --    0.29089   0.29834   0.30234   0.30719   0.31013
 Alpha virt. eigenvalues --    0.32003   0.32416   0.32848   0.32920   0.33670
 Alpha virt. eigenvalues --    0.35243   0.35919   0.36127   0.36647   0.36944
 Alpha virt. eigenvalues --    0.37447   0.37859   0.38389   0.38975   0.39607
 Alpha virt. eigenvalues --    0.39801   0.41339   0.41723   0.42502   0.43068
 Alpha virt. eigenvalues --    0.43148   0.43867   0.44157   0.44774   0.45368
 Alpha virt. eigenvalues --    0.45965   0.46677   0.47331   0.48094   0.48584
 Alpha virt. eigenvalues --    0.49035   0.49257   0.50028   0.51161   0.51859
 Alpha virt. eigenvalues --    0.52210   0.52632   0.53103   0.54144   0.54943
 Alpha virt. eigenvalues --    0.55411   0.55934   0.57132   0.58106   0.58399
 Alpha virt. eigenvalues --    0.59036   0.59372   0.60277   0.60775   0.61188
 Alpha virt. eigenvalues --    0.62063   0.62492   0.63066   0.63405   0.63789
 Alpha virt. eigenvalues --    0.64991   0.65763   0.66429   0.66886   0.67479
 Alpha virt. eigenvalues --    0.67881   0.68433   0.68856   0.69515   0.69932
 Alpha virt. eigenvalues --    0.70986   0.71943   0.72324   0.72729   0.73241
 Alpha virt. eigenvalues --    0.74143   0.75174   0.75293   0.76153   0.76484
 Alpha virt. eigenvalues --    0.76896   0.77913   0.78582   0.79553   0.80389
 Alpha virt. eigenvalues --    0.80857   0.81503   0.81956   0.82245   0.82466
 Alpha virt. eigenvalues --    0.84513   0.84892   0.85769   0.86907   0.87969
 Alpha virt. eigenvalues --    0.88617   0.90337   0.91070   0.92561   0.93496
 Alpha virt. eigenvalues --    0.94555   0.95941   0.97705   0.98876   0.99279
 Alpha virt. eigenvalues --    0.99381   1.01153   1.01807   1.02808   1.03059
 Alpha virt. eigenvalues --    1.04069   1.04991   1.05373   1.06039   1.08219
 Alpha virt. eigenvalues --    1.08991   1.10849   1.13240   1.14619   1.15788
 Alpha virt. eigenvalues --    1.18782   1.20079   1.21138   1.23141   1.23901
 Alpha virt. eigenvalues --    1.26136   1.28016   1.30086   1.32576   1.33211
 Alpha virt. eigenvalues --    1.34159   1.36063   1.36742   1.36940   1.41425
 Alpha virt. eigenvalues --    1.42932   1.44545   1.45935   1.46364   1.47586
 Alpha virt. eigenvalues --    1.48607   1.50830   1.52630   1.53410   1.53612
 Alpha virt. eigenvalues --    1.57073   1.58792   1.59687   1.60149   1.62977
 Alpha virt. eigenvalues --    1.63307   1.64398   1.65539   1.68307   1.70917
 Alpha virt. eigenvalues --    1.71768   1.72401   1.73774   1.75445   1.77911
 Alpha virt. eigenvalues --    1.78535   1.81639   1.81843   1.82261   1.83394
 Alpha virt. eigenvalues --    1.83894   1.84602   1.86346   1.87133   1.90168
 Alpha virt. eigenvalues --    1.90903   1.91158   1.91784   1.93387   1.94146
 Alpha virt. eigenvalues --    1.96258   1.98111   1.99070   1.99757   2.00419
 Alpha virt. eigenvalues --    2.01391   2.03001   2.04804   2.05364   2.09283
 Alpha virt. eigenvalues --    2.10411   2.11671   2.16161   2.17098   2.19144
 Alpha virt. eigenvalues --    2.21432   2.22530   2.25048   2.28859   2.29463
 Alpha virt. eigenvalues --    2.30228   2.33034   2.33748   2.36047   2.36788
 Alpha virt. eigenvalues --    2.41180   2.42503   2.43210   2.44474   2.45242
 Alpha virt. eigenvalues --    2.46621   2.49782   2.53336   2.56532   2.58316
 Alpha virt. eigenvalues --    2.60009   2.63811   2.65245   2.66584   2.68071
 Alpha virt. eigenvalues --    2.71757   2.72235   2.73575   2.79003   2.81794
 Alpha virt. eigenvalues --    2.84772   2.85000   2.85511   2.88117   2.88410
 Alpha virt. eigenvalues --    2.90995   2.91705   2.94659   2.94933   2.95656
 Alpha virt. eigenvalues --    2.96297   2.97411   3.00409   3.02381   3.04474
 Alpha virt. eigenvalues --    3.08273   3.10011   3.10523   3.12495   3.13460
 Alpha virt. eigenvalues --    3.14290   3.15512   3.18286   3.19553   3.21327
 Alpha virt. eigenvalues --    3.23091   3.25594   3.27814   3.32493   3.33092
 Alpha virt. eigenvalues --    3.34081   3.35934   3.37085   3.38069   3.39649
 Alpha virt. eigenvalues --    3.40282   3.41547   3.44926   3.46825   3.47346
 Alpha virt. eigenvalues --    3.48632   3.48765   3.49894   3.51601   3.53669
 Alpha virt. eigenvalues --    3.56652   3.56955   3.57722   3.60931   3.62125
 Alpha virt. eigenvalues --    3.63570   3.63997   3.64844   3.69325   3.71435
 Alpha virt. eigenvalues --    3.72754   3.77309   3.78030   3.78865   3.85789
 Alpha virt. eigenvalues --    3.89300   3.91894   3.96729   3.97951   4.00969
 Alpha virt. eigenvalues --    4.07442   4.08936   4.11275   4.13357   4.17937
 Alpha virt. eigenvalues --    4.18119   4.21334   4.23366   4.24380   4.25892
 Alpha virt. eigenvalues --    4.26431   4.29157   4.32982   4.34146   4.35505
 Alpha virt. eigenvalues --    4.36265   4.36949   4.39764   4.44221   4.45206
 Alpha virt. eigenvalues --    4.48112   4.53123   4.57125   4.63783   4.66406
 Alpha virt. eigenvalues --    4.72635   4.73119   4.75027   4.76508   4.79631
 Alpha virt. eigenvalues --    4.81348   4.82110   4.85271   4.89290   4.91389
 Alpha virt. eigenvalues --    4.93067   4.93988   4.96746   4.99690   5.00677
 Alpha virt. eigenvalues --    5.06468   5.09906   5.15811   5.17440   5.21019
 Alpha virt. eigenvalues --    5.21075   5.24158   5.26084   5.28249   5.30834
 Alpha virt. eigenvalues --    5.35269   5.41132   5.41829   5.45528   5.48486
 Alpha virt. eigenvalues --    5.51161   5.54941   5.56828   5.64874   5.71173
 Alpha virt. eigenvalues --    5.72331   5.73088   5.76724   5.81499   5.97472
 Alpha virt. eigenvalues --    6.08768   6.11793   6.16902   6.45355   6.46515
 Alpha virt. eigenvalues --    6.53525   6.60203   6.62091   6.64239   6.96400
 Alpha virt. eigenvalues --    6.96450   6.99668   7.13989   7.32949   7.47142
 Alpha virt. eigenvalues --    7.58407   7.79772   7.82708   8.75893  22.71624
 Alpha virt. eigenvalues --   22.96248  23.01671  23.10981  23.24755  23.54546
 Alpha virt. eigenvalues --   32.47353  32.87928  44.48135  44.67126
          Condensed to atoms (all electrons):
              1          2          3          4          5          6
     1  C    9.768981  -0.282780  -0.586295  -0.026594  -2.494691   0.110876
     2  C   -0.282780   6.326777   0.527190  -0.213405   0.275760  -0.473618
     3  C   -0.586295   0.527190   6.489001   0.214477  -0.102053  -0.135273
     4  C   -0.026594  -0.213405   0.214477   7.125740  -0.107026  -0.732863
     5  C   -2.494691   0.275760  -0.102053  -0.107026  10.177525  -1.564475
     6  C    0.110876  -0.473618  -0.135273  -0.732863  -1.564475   7.864791
     7  H    0.408106  -0.076522   0.009290   0.005322  -0.042181  -0.167404
     8  H    0.037934  -0.072815   0.287998  -0.068994  -0.011416  -0.009840
     9  H    0.004436   0.001922  -0.072679   0.479770  -0.223843   0.009987
    10  N   -0.149435   0.477605  -0.183220   0.000077   0.008293  -0.052291
    11  O    0.034416  -0.081995  -0.017916   0.010560  -0.009529  -0.001947
    12  O   -0.029185  -0.062156   0.023247  -0.004251  -0.004522   0.021574
    13  N    0.015661   0.010485  -0.001546  -0.098193   0.207310  -0.042637
    14  H   -0.021984   0.008570   0.002650   0.027964  -0.014921  -0.096302
    15  H    0.041139  -0.003278  -0.004351  -0.021267  -0.178035   0.079156
    16  Br  -0.432716  -0.012519  -0.004216  -0.001853  -0.529818   0.612523
              7          8          9         10         11         12
     1  C    0.408106   0.037934   0.004436  -0.149435   0.034416  -0.029185
     2  C   -0.076522  -0.072815   0.001922   0.477605  -0.081995  -0.062156
     3  C    0.009290   0.287998  -0.072679  -0.183220  -0.017916   0.023247
     4  C    0.005322  -0.068994   0.479770   0.000077   0.010560  -0.004251
     5  C   -0.042181  -0.011416  -0.223843   0.008293  -0.009529  -0.004522
     6  C   -0.167404  -0.009840   0.009987  -0.052291  -0.001947   0.021574
     7  H    0.406093   0.002467  -0.000164   0.002315  -0.001542  -0.000589
     8  H    0.002467   0.394323  -0.007858   0.002985   0.007019  -0.003223
     9  H   -0.000164  -0.007858   0.531108  -0.000037   0.000192   0.000073
    10  N    0.002315   0.002985  -0.000037   5.805075   0.092707   0.091153
    11  O   -0.001542   0.007019   0.000192   0.092707   8.667492  -0.112225
    12  O   -0.000589  -0.003223   0.000073   0.091153  -0.112225   8.668857
    13  N    0.001155   0.000205   0.009673  -0.000119   0.000118   0.000087
    14  H   -0.000339  -0.000515   0.020837  -0.000093   0.000026   0.000010
    15  H    0.000203   0.000162  -0.002483   0.000078   0.000000  -0.000013
    16  Br  -0.043574   0.000555   0.000437  -0.006142   0.000162   0.001100
             13         14         15         16
     1  C    0.015661  -0.021984   0.041139  -0.432716
     2  C    0.010485   0.008570  -0.003278  -0.012519
     3  C   -0.001546   0.002650  -0.004351  -0.004216
     4  C   -0.098193   0.027964  -0.021267  -0.001853
     5  C    0.207310  -0.014921  -0.178035  -0.529818
     6  C   -0.042637  -0.096302   0.079156   0.612523
     7  H    0.001155  -0.000339   0.000203  -0.043574
     8  H    0.000205  -0.000515   0.000162   0.000555
     9  H    0.009673   0.020837  -0.002483   0.000437
    10  N   -0.000119  -0.000093   0.000078  -0.006142
    11  O    0.000118   0.000026   0.000000   0.000162
    12  O    0.000087   0.000010  -0.000013   0.001100
    13  N    6.602896   0.359184   0.358731  -0.018458
    14  H    0.359184   0.577714  -0.055756  -0.017966
    15  H    0.358731  -0.055756   0.514033   0.102155
    16  Br  -0.018458  -0.017966   0.102155  35.655303
 Mulliken atomic charges:
              1
     1  C   -0.397870
     2  C   -0.349222
     3  C   -0.446307
     4  C   -0.589464
     5  C    0.613622
     6  C    0.577742
     7  H    0.497362
     8  H    0.441013
     9  H    0.248629
    10  N    0.911049
    11  O   -0.587538
    12  O   -0.589936
    13  N   -0.404552
    14  H    0.210918
    15  H    0.169524
    16  Br  -0.304973
 Sum of Mulliken atomic charges =   0.00000
 Mulliken charges with hydrogens summed into heavy atoms:
              1
     1  C    0.099493
     2  C   -0.349222
     3  C   -0.005294
     4  C   -0.340835
     5  C    0.613622
     6  C    0.577742
    10  N    0.911049
    11  O   -0.587538
    12  O   -0.589936
    13  N   -0.024109
    16  Br  -0.304973
 Sum of Mulliken charges with hydrogens summed into heavy atoms =   0.00000
 Electronic spatial extent (au):  <R**2>=           2481.9786
 Charge=              0.0000 electrons
 Dipole moment (field-independent basis, Debye):
    X=              5.5591    Y=              3.3364    Z=              0.5388  Tot=              6.5058
 Quadrupole moment (field-independent basis, Debye-Ang):
   XX=            -87.9517   YY=            -68.4244   ZZ=            -76.7653
   XY=             -0.5921   XZ=              1.6804   YZ=              1.3701
 Traceless Quadrupole moment (field-independent basis, Debye-Ang):
   XX=            -10.2379   YY=              9.2894   ZZ=              0.9485
   XY=             -0.5921   XZ=              1.6804   YZ=              1.3701
 Octapole moment (field-independent basis, Debye-Ang**2):
  XXX=            148.6129  YYY=              1.9522  ZZZ=              0.4072  XYY=             36.1776
  XXY=             14.9932  XXZ=              4.5823  XZZ=             10.7012  YZZ=            -15.4841
  YYZ=              3.3638  XYZ=              3.7803
 Hexadecapole moment (field-independent basis, Debye-Ang**3):
 XXXX=          -2301.0970 YYYY=           -679.3616 ZZZZ=            -83.3298 XXXY=            -53.9603
 XXXZ=             13.5898 YYYX=            -25.9992 YYYZ=              9.5631 ZZZX=              0.7042
 ZZZY=              1.2082 XXYY=           -458.8777 XXZZ=           -354.5960 YYZZ=           -154.0370
 XXYZ=              9.9887 YYXZ=              8.8692 ZZXY=            -12.3514
 N-N= 8.847986926861D+02 E-N=-9.069744366072D+03  KE= 3.060969018737D+03
 Calling FoFJK, ICntrl=      2127 FMM=F ISym2X=0 I1Cent= 0 IOpClX= 0 NMat=1 NMatS=1 NMatT=0.
 FoFJK:  IHMeth= 1 ICntrl=  2127 DoSepK=T KAlg= 1 I1Cent= 0 FoldK=F
 ***** Axes restored to original set *****
 -------------------------------------------------------------------
 Center     Atomic                   Forces (Hartrees/Bohr)
 Number     Number              X              Y              Z
 -------------------------------------------------------------------
      1        6           0.027357132   -0.024930434   -0.000031012
      2        6           0.001181291    0.005848111   -0.000014844
      3        6          -0.000848627   -0.001700825    0.000000846
      4        6          -0.003066727   -0.002894027    0.000083982
      5        6           0.014815181   -0.026618573   -0.000237788
      6        6           0.168577407   -0.213027366   -0.001241509
      7        1           0.000462787   -0.000928874    0.000001690
      8        1          -0.000036740   -0.000037659   -0.000015947
      9        1           0.000889075   -0.000803317   -0.000005097
     10        7          -0.000009560   -0.001259132   -0.000016239
     11        8           0.000770167    0.000009516    0.000009033
     12        8           0.000276193    0.000158003   -0.000000078
     13        7           0.002202610   -0.007288325    0.000463741
     14        1           0.000738741   -0.000921723   -0.000533430
     15        1          -0.001567368   -0.001774236    0.000381873
     16       35          -0.211741563    0.276168861    0.001154780
 -------------------------------------------------------------------
 Cartesian Forces:  Max     0.276168861 RMS     0.064117576

 GradGradGradGradGradGradGradGradGradGradGradGradGradGradGradGradGradGrad
 Berny optimization.
 Internal  Forces:  Max     0.347816185 RMS     0.041989870
 Search for a local minimum.
 Step number   1 out of a maximum of   82
 All quantities printed in internal units (Hartrees-Bohrs-Radians)
 Mixed Optimization -- RFO/linear search
 Second derivative matrix not updated -- first step.
     Eigenvalues ---    0.00943   0.00943   0.01894   0.02142   0.02162
     Eigenvalues ---    0.02195   0.02256   0.02304   0.02347   0.02352
     Eigenvalues ---    0.02372   0.02436   0.03045   0.16000   0.16000
     Eigenvalues ---    0.16000   0.16000   0.16000   0.22375   0.23499
     Eigenvalues ---    0.24613   0.24987   0.25000   0.25000   0.25000
     Eigenvalues ---    0.25000   0.35740   0.36093   0.36114   0.37395
     Eigenvalues ---    0.42967   0.43893   0.46878   0.47031   0.47165
     Eigenvalues ---    0.47517   0.48823   0.51195   0.52064   0.58353
     Eigenvalues ---    0.97553   0.977211000.000001000.000001000.00000
     Eigenvalues --- 1000.000001000.000001000.000001000.000001000.00000
     Eigenvalues --- 1000.000001000.000001000.000001000.000001000.00000
     Eigenvalues --- 1000.000001000.000001000.000001000.000001000.00000
     Eigenvalues --- 1000.000001000.000001000.000001000.000001000.00000
     Eigenvalues --- 1000.000001000.000001000.000001000.000001000.00000
     Eigenvalues --- 1000.000001000.00000
 RFO step:  Lambda=-1.72302059D-01 EMin= 9.43230889D-03
 Linear search not attempted -- first point.
 Maximum step size (   0.300) exceeded in Quadratic search.
    -- Step size scaled by   0.615
 Iteration  1 RMS(Cart)=  0.04246567 RMS(Int)=  0.00972690
 Iteration  2 RMS(Cart)=  0.00949046 RMS(Int)=  0.00006304
 Iteration  3 RMS(Cart)=  0.00001807 RMS(Int)=  0.00006243
 Iteration  4 RMS(Cart)=  0.00000000 RMS(Int)=  0.00006243
 Variable       Old X    -DE/DX   Delta X   Delta X   Delta X     New X
                                 (Linear)    (Quad)   (Total)
    R1        2.61970  -0.00234   0.00000  -0.00246  -0.00245   2.61725
    R2        2.57948   0.02979   0.00000   0.02747   0.02759   2.60707
    R3        2.03937  -0.00069   0.00000  -0.00080  -0.00080   2.03857
    R4        2.61147  -0.00342   0.00000  -0.00443  -0.00453   2.60693
    R5        2.75255   0.00087   0.00000   0.00098   0.00098   2.75353
    R6        2.60464  -0.00473   0.00000  -0.00537  -0.00549   2.59915
    R7        2.03903   0.00001   0.00000   0.00001   0.00001   2.03904
    R8        2.63780   0.00204   0.00000   0.00219   0.00218   2.63998
    R9        2.04489   0.00042   0.00000   0.00048   0.00048   2.04538
   R10        2.64010   0.03672   0.00000   0.03696   0.03707   2.67717
   R11        2.57838  -0.00030   0.00000  -0.00026  -0.00026   2.57812
   R12        2.91018   0.34782   0.00000   0.28304   0.28304   3.19322
   R13        2.29566   0.00045   0.00000   0.00024   0.00024   2.29589
   R14        2.29635   0.00024   0.00000   0.00013   0.00013   2.29648
   R15        1.89686   0.00041   0.00000   0.00039   0.00039   1.89725
   R16        1.89854  -0.00046   0.00000  -0.00044  -0.00044   1.89810
    A1        2.05561   0.01681   0.00000   0.02733   0.02746   2.08307
    A2        2.11429  -0.00919   0.00000  -0.01512  -0.01518   2.09910
    A3        2.11329  -0.00762   0.00000  -0.01221  -0.01227   2.10101
    A4        2.11906   0.00291   0.00000   0.00160   0.00150   2.12056
    A5        2.07534  -0.00024   0.00000   0.00096   0.00101   2.07635
    A6        2.08879  -0.00267   0.00000  -0.00256  -0.00252   2.08627
    A7        2.08509  -0.00010   0.00000  -0.00435  -0.00457   2.08051
    A8        2.08356   0.00010   0.00000   0.00227   0.00238   2.08594
    A9        2.11454   0.00000   0.00000   0.00208   0.00219   2.11673
   A10        2.11228   0.00523   0.00000   0.00649   0.00636   2.11864
   A11        2.09263  -0.00376   0.00000  -0.00537  -0.00530   2.08732
   A12        2.07827  -0.00147   0.00000  -0.00112  -0.00105   2.07722
   A13        2.04332   0.01109   0.00000   0.01815   0.01825   2.06157
   A14        2.14627  -0.02160   0.00000  -0.03247  -0.03252   2.11375
   A15        2.09318   0.01051   0.00000   0.01431   0.01427   2.10745
   A16        2.15101  -0.03594   0.00000  -0.04922  -0.04899   2.10202
   A17        2.09152   0.00146   0.00000   0.00057   0.00045   2.09198
   A18        2.04064   0.03448   0.00000   0.04865   0.04854   2.08918
   A19        2.05645   0.00080   0.00000   0.00117   0.00117   2.05762
   A20        2.05546  -0.00016   0.00000  -0.00024  -0.00024   2.05522
   A21        2.17128  -0.00064   0.00000  -0.00093  -0.00093   2.17035
   A22        2.07402  -0.00246   0.00000  -0.00450  -0.00450   2.06952
   A23        2.06480   0.00352   0.00000   0.00657   0.00657   2.07138
   A24        2.03360  -0.00079   0.00000  -0.00140  -0.00140   2.03220
    D1       -0.00159   0.00003   0.00000   0.00010   0.00010  -0.00150
    D2       -3.14090  -0.00002   0.00000  -0.00004  -0.00005  -3.14095
    D3        3.13744   0.00016   0.00000   0.00041   0.00040   3.13784
    D4       -0.00187   0.00011   0.00000   0.00026   0.00026  -0.00161
    D5       -0.00064   0.00005   0.00000   0.00004   0.00003  -0.00060
    D6        3.13564   0.00046   0.00000   0.00119   0.00118   3.13682
    D7       -3.13967  -0.00007   0.00000  -0.00027  -0.00027  -3.13994
    D8       -0.00340   0.00033   0.00000   0.00089   0.00088  -0.00252
    D9        0.00202  -0.00003   0.00000  -0.00007  -0.00007   0.00196
   D10       -3.14019  -0.00002   0.00000  -0.00009  -0.00009  -3.14028
   D11        3.14132   0.00002   0.00000   0.00008   0.00008   3.14139
   D12       -0.00090   0.00003   0.00000   0.00006   0.00006  -0.00084
   D13        3.13907   0.00002   0.00000   0.00005   0.00005   3.13912
   D14       -0.00228   0.00003   0.00000   0.00007   0.00007  -0.00221
   D15       -0.00028  -0.00004   0.00000  -0.00010  -0.00010  -0.00037
   D16        3.14156  -0.00003   0.00000  -0.00007  -0.00007   3.14149
   D17       -0.00023  -0.00001   0.00000  -0.00008  -0.00007  -0.00030
   D18        3.13658   0.00007   0.00000   0.00010   0.00010   3.13668
   D19       -3.14119  -0.00003   0.00000  -0.00006  -0.00005  -3.14124
   D20       -0.00438   0.00006   0.00000   0.00012   0.00012  -0.00426
   D21       -0.00185   0.00005   0.00000   0.00014   0.00014  -0.00171
   D22        3.10883   0.00025   0.00000   0.00042   0.00041   3.10924
   D23       -3.13870  -0.00003   0.00000  -0.00002  -0.00002  -3.13872
   D24       -0.02802   0.00017   0.00000   0.00025   0.00025  -0.02777
   D25        0.00232  -0.00010   0.00000  -0.00016  -0.00016   0.00216
   D26       -3.13410  -0.00041   0.00000  -0.00117  -0.00117  -3.13527
   D27       -3.10934   0.00030   0.00000   0.00044   0.00044  -3.10890
   D28        0.03742   0.00000   0.00000  -0.00056  -0.00057   0.03685
   D29        0.29348  -0.00093   0.00000  -0.00277  -0.00277   0.29071
   D30        2.93035  -0.00059   0.00000  -0.00173  -0.00173   2.92862
   D31       -2.87987  -0.00073   0.00000  -0.00246  -0.00246  -2.88233
   D32       -0.24301  -0.00039   0.00000  -0.00141  -0.00142  -0.24442
         Item               Value     Threshold  Converged?
 Maximum Force            0.347816     0.000015     NO 
 RMS     Force            0.041990     0.000010     NO 
 Maximum Displacement     0.346356     0.000060     NO 
 RMS     Displacement     0.050377     0.000040     NO 
 Predicted change in Energy=-8.113775D-02
 GradGradGradGradGradGradGradGradGradGradGradGradGradGradGradGradGradGrad

                          Input orientation:                          
 ---------------------------------------------------------------------
 Center     Atomic      Atomic             Coordinates (Angstroms)
 Number     Number       Type             X           Y           Z
 ---------------------------------------------------------------------
      1          6           0       -1.212355   -0.193073   -0.000369
      2          6           0       -0.377813   -1.298393    0.000724
      3          6           0       -0.882229   -2.582396    0.002145
      4          6           0       -2.245053   -2.768050    0.000134
      5          6           0       -3.126994   -1.684618   -0.002953
      6          6           0       -2.579506   -0.377986   -0.001833
      7          1           0       -0.796463    0.802297    0.002021
      8          1           0       -0.202644   -3.420504    0.004204
      9          1           0       -2.647658   -3.772747   -0.003393
     10          7           0        1.064797   -1.093396    0.003088
     11          8           0        1.778578   -2.076539    0.006671
     12          8           0        1.473810    0.050948    0.001629
     13          7           0       -4.477335   -1.875045   -0.042725
     14          1           0       -4.841098   -2.783132    0.183180
     15          1           0       -5.080086   -1.093165    0.142304
     16         35           0       -3.609686    0.961437    0.003814
 ---------------------------------------------------------------------
                    Distance matrix (angstroms):
                    1          2          3          4          5
     1  C    0.000000
     2  C    1.384988   0.000000
     3  C    2.412022   1.379529   0.000000
     4  C    2.774342   2.376232   1.375413   0.000000
     5  C    2.427046   2.776180   2.417643   1.397016   0.000000
     6  C    1.379600   2.386337   2.782119   2.413352   1.416697
     7  H    1.078765   2.142001   3.385779   3.853024   3.408246
     8  H    3.381693   2.129331   1.079011   2.144096   3.400760
     9  H    3.856704   3.357774   2.129251   1.082367   2.142439
    10  N    2.448676   1.457104   2.451129   3.709391   4.233283
    11  O    3.534569   2.292503   2.708470   4.082627   4.921212
    12  O    2.697227   2.291120   3.533471   4.666551   4.917276
    13  N    3.672998   4.140108   3.664307   2.404658   1.364282
    14  H    4.462047   4.707298   3.968086   2.602534   2.044390
    15  H    3.973646   4.708878   4.456395   3.295886   2.045846
    16  Br   2.660846   3.943582   4.471886   3.971311   2.689729
                    6          7          8          9         10
     6  C    0.000000
     7  H    2.138299   0.000000
     8  H    3.860884   4.264349   0.000000
     9  H    3.395445   4.935381   2.470269   0.000000
    10  N    3.713863   2.656679   2.649876   4.578350   0.000000
    11  O    4.677398   3.862455   2.394053   4.740126   1.214935
    12  O    4.075949   2.391373   3.855060   5.622026   1.215244
    13  N    2.417564   4.551811   4.545726   2.636387   5.597169
    14  H    3.306623   5.408067   4.685459   2.413571   6.145505
    15  H    2.604834   4.686350   5.406017   3.621890   6.146460
    16  Br   1.689780   2.817720   5.550616   4.830946   5.106185
                   11         12         13         14         15
    11  O    0.000000
    12  O    2.149212   0.000000
    13  N    6.259352   6.255201   0.000000
    14  H    6.659620   6.924090   1.003981   0.000000
    15  H    6.930129   6.654497   1.004430   1.707271   0.000000
    16  Br   6.185684   5.164389   2.966582   3.945927   2.530345
                   16
    16  Br   0.000000
 Stoichiometry    C6H5BrN2O2
 Framework group  C1[X(C6H5BrN2O2)]
 Deg. of freedom    42
 Full point group                 C1      NOp   1
 Largest Abelian subgroup         C1      NOp   1
 Largest concise Abelian subgroup C1      NOp   1
                         Standard orientation:                         
 ---------------------------------------------------------------------
 Center     Atomic      Atomic             Coordinates (Angstroms)
 Number     Number       Type             X           Y           Z
 ---------------------------------------------------------------------
      1          6           0       -0.493715   -0.638856   -0.002613
      2          6           0       -1.647256    0.127651   -0.001520
      3          6           0       -1.596604    1.506250   -0.000099
      4          6           0       -0.372201    2.132823   -0.002110
      5          6           0        0.818814    1.402666   -0.005197
      6          6           0        0.735016   -0.011550   -0.004077
      7          1           0       -0.556441   -1.715794   -0.000223
      8          1           0       -2.515428    2.071955    0.001960
      9          1           0       -0.325100    3.214159   -0.005637
     10          7           0       -2.940535   -0.543599    0.000845
     11          8           0       -3.939664    0.147627    0.004427
     12          8           0       -2.947427   -1.758822   -0.000614
     13          7           0        2.029858    2.029608   -0.044969
     14          1           0        2.072309    3.006922    0.180936
     15          1           0        2.857562    1.491507    0.140061
     16         35           0        2.150692   -0.934147    0.001571
 ---------------------------------------------------------------------
 Rotational constants (GHZ):      1.5878572      0.4897387      0.3743399
 Basis read from rwf:  (5D, 7F)
 There are   478 symmetry adapted basis functions of A   symmetry.
 Integral buffers will be    131072 words long.
 Raffenetti 2 integral format.
 Two-electron integral symmetry is turned on.
   478 basis functions,   765 primitive gaussians,   546 cartesian basis functions
    53 alpha electrons       53 beta electrons
       nuclear repulsion energy       862.5157279802 Hartrees.
 NAtoms=   16 NActive=   16 NUniq=   16 SFac= 7.50D-01 NAtFMM=   80 NAOKFM=F Big=F
 One-electron integrals computed using PRISM.
 NBasis=   478 RedAO= T  NBF=   478
 NBsUse=   477 1.00D-06 NBFU=   477
 Initial guess read from the read-write file.
 B after Tr=     0.000000    0.000000    0.000000
         Rot=    1.000000    0.000000    0.000000    0.000000 Ang=   0.00 deg.
 Initial guess orbital symmetries:
       Occupied  (A) (A) (A) (A) (A) (A) (A) (A) (A) (A) (A) (A)
                 (A) (A) (A) (A) (A) (A) (A) (A) (A) (A) (A) (A)
                 (A) (A) (A) (A) (A) (A) (A) (A) (A) (A) (A) (A)
                 (A) (A) (A) (A) (A) (A) (A) (A) (A) (A) (A) (A)
                 (A) (A) (A) (A) (A)
       Virtual   (A) (A) (A) (A) (A) (A) (A) (A) (A) (A) (A) (A)
                 (A) (A) (A) (A) (A) (A) (A) (A) (A) (A) (A) (A)
                 (A) (A) (A) (A) (A) (A) (A) (A) (A) (A) (A) (A)
                 (A) (A) (A) (A) (A) (A) (A) (A) (A) (A) (A) (A)
                 (A) (A) (A) (A) (A) (A) (A) (A) (A) (A) (A) (A)
                 (A) (A) (A) (A) (A) (A) (A) (A) (A) (A) (A) (A)
                 (A) (A) (A) (A) (A) (A) (A) (A) (A) (A) (A) (A)
                 (A) (A) (A) (A) (A) (A) (A) (A) (A) (A) (A) (A)
                 (A) (A) (A) (A) (A) (A) (A) (A) (A) (A) (A) (A)
                 (A) (A) (A) (A) (A) (A) (A) (A) (A) (A) (A) (A)
                 (A) (A) (A) (A) (A) (A) (A) (A) (A) (A) (A) (A)
                 (A) (A) (A) (A) (A) (A) (A) (A) (A) (A) (A) (A)
                 (A) (A) (A) (A) (A) (A) (A) (A) (A) (A) (A) (A)
                 (A) (A) (A) (A) (A) (A) (A) (A) (A) (A) (A) (A)
                 (A) (A) (A) (A) (A) (A) (A) (A) (A) (A) (A) (A)
                 (A) (A) (A) (A) (A) (A) (A) (A) (A) (A) (A) (A)
                 (A) (A) (A) (A) (A) (A) (A) (A) (A) (A) (A) (A)
                 (A) (A) (A) (A) (A) (A) (A) (A) (A) (A) (A) (A)
                 (A) (A) (A) (A) (A) (A) (A) (A) (A) (A) (A) (A)
                 (A) (A) (A) (A) (A) (A) (A) (A) (A) (A) (A) (A)
                 (A) (A) (A) (A) (A) (A) (A) (A) (A) (A) (A) (A)
                 (A) (A) (A) (A) (A) (A) (A) (A) (A) (A) (A) (A)
                 (A) (A) (A) (A) (A) (A) (A) (A) (A) (A) (A) (A)
                 (A) (A) (A) (A) (A) (A) (A) (A) (A) (A) (A) (A)
                 (A) (A) (A) (A) (A) (A) (A) (A) (A) (A) (A) (A)
                 (A) (A) (A) (A) (A) (A) (A) (A) (A) (A) (A) (A)
                 (A) (A) (A) (A) (A) (A) (A) (A) (A) (A) (A) (A)
                 (A) (A) (A) (A) (A) (A) (A) (A) (A) (A) (A) (A)
                 (A) (A) (A) (A) (A) (A) (A) (A) (A) (A) (A) (A)
                 (A) (A) (A) (A) (A) (A) (A) (A) (A) (A) (A) (A)
                 (A) (A) (A) (A) (A) (A) (A) (A) (A) (A) (A) (A)
                 (A) (A) (A) (A) (A) (A) (A) (A) (A) (A) (A) (A)
                 (A) (A) (A) (A) (A) (A) (A) (A) (A) (A) (A) (A)
                 (A) (A) (A) (A) (A) (A) (A) (A) (A) (A) (A) (A)
                 (A) (A) (A) (A) (A) (A) (A) (A) (A) (A) (A) (A)
                 (A) (A) (A) (A)
 Harris functional with IExCor=20419 diagonalized for initial guess.
 ExpMin= 2.90D-02 ExpMax= 5.65D+05 ExpMxC= 5.46D+03 IAcc=3 IRadAn=         5 AccDes= 0.00D+00
 HarFok:  IExCor=20419 AccDes= 0.00D+00 IRadAn=         5 IDoV= 1
 ScaDFX=  1.000000  1.000000  1.000000  1.000000
 FoFCou: FMM=F IPFlag=           0 FMFlag=      100000 FMFlg1=           0
         NFxFlg=           0 DoJE=T BraDBF=F KetDBF=T FulRan=T
         Omega=  0.000000  0.000000  1.000000  0.000000  0.000000 ICntrl=     500 IOpCl=  0
         NMat0=    1 NMatS0=    1 NMatT0=    0 NMatD0=    1 NMtDS0=    0 NMtDT0=    0
         I1Cent=           4 NGrid=           0.
 Petite list used in FoFCou.
 FoFJK:  IHMeth= 1 ICntrl=     0 DoSepK=T KAlg= 1 I1Cent= 0 FoldK=F
 Gradient too large for Newton-Raphson -- use scaled steepest descent instead.
 FoFJK:  IHMeth= 1 ICntrl=     0 DoSepK=T KAlg= 1 I1Cent= 0 FoldK=F
 FoFJK:  IHMeth= 1 ICntrl=     0 DoSepK=T KAlg= 1 I1Cent= 0 FoldK=F
 FoFJK:  IHMeth= 1 ICntrl=     0 DoSepK=T KAlg= 1 I1Cent= 0 FoldK=F
 FoFJK:  IHMeth= 1 ICntrl=     0 DoSepK=T KAlg= 1 I1Cent= 0 FoldK=F
 FoFJK:  IHMeth= 1 ICntrl=     0 DoSepK=T KAlg= 1 I1Cent= 0 FoldK=F
 FoFJK:  IHMeth= 1 ICntrl=     0 DoSepK=T KAlg= 1 I1Cent= 0 FoldK=F
 Gradient too large for Newton-Raphson -- use scaled steepest descent instead.
 FoFJK:  IHMeth= 1 ICntrl=     0 DoSepK=T KAlg= 1 I1Cent= 0 FoldK=F
 FoFJK:  IHMeth= 1 ICntrl=     0 DoSepK=T KAlg= 1 I1Cent= 0 FoldK=F
 FoFJK:  IHMeth= 1 ICntrl=     0 DoSepK=T KAlg= 1 I1Cent= 0 FoldK=F
 Gradient too large for Newton-Raphson -- use scaled steepest descent instead.
 FoFJK:  IHMeth= 1 ICntrl=     0 DoSepK=T KAlg= 1 I1Cent= 0 FoldK=F
 FoFJK:  IHMeth= 1 ICntrl=     0 DoSepK=T KAlg= 1 I1Cent= 0 FoldK=F
 FoFJK:  IHMeth= 1 ICntrl=     0 DoSepK=T KAlg= 1 I1Cent= 0 FoldK=F
 FoFJK:  IHMeth= 1 ICntrl=     0 DoSepK=T KAlg= 1 I1Cent= 0 FoldK=F
 Gradient too large for Newton-Raphson -- use scaled steepest descent instead.
 FoFJK:  IHMeth= 1 ICntrl=     0 DoSepK=T KAlg= 1 I1Cent= 0 FoldK=F
 FoFJK:  IHMeth= 1 ICntrl=     0 DoSepK=T KAlg= 1 I1Cent= 0 FoldK=F
 FoFJK:  IHMeth= 1 ICntrl=     0 DoSepK=T KAlg= 1 I1Cent= 0 FoldK=F
 LinEq1:  Iter=  0 NonCon=     1 RMS=2.80D-05 Max=1.74D-03
 AX will form     1 AO Fock derivatives at one time.
 FoFJK:  IHMeth= 1 ICntrl=     0 DoSepK=T KAlg= 1 I1Cent= 0 FoldK=F
 LinEq1:  Iter=  1 NonCon=     1 RMS=3.26D-05 Max=2.75D-03
 FoFJK:  IHMeth= 1 ICntrl=     0 DoSepK=T KAlg= 1 I1Cent= 0 FoldK=F
 LinEq1:  Iter=  2 NonCon=     1 RMS=6.48D-06 Max=4.33D-04
 FoFJK:  IHMeth= 1 ICntrl=     0 DoSepK=T KAlg= 1 I1Cent= 0 FoldK=F
 LinEq1:  Iter=  3 NonCon=     1 RMS=4.92D-06 Max=2.85D-04
 FoFJK:  IHMeth= 1 ICntrl=     0 DoSepK=T KAlg= 1 I1Cent= 0 FoldK=F
 LinEq1:  Iter=  4 NonCon=     1 RMS=1.32D-06 Max=4.00D-05
 FoFJK:  IHMeth= 1 ICntrl=     0 DoSepK=T KAlg= 1 I1Cent= 0 FoldK=F
 LinEq1:  Iter=  5 NonCon=     1 RMS=9.41D-07 Max=4.43D-05
 FoFJK:  IHMeth= 1 ICntrl=     0 DoSepK=T KAlg= 1 I1Cent= 0 FoldK=F
 LinEq1:  Iter=  6 NonCon=     1 RMS=4.24D-07 Max=1.94D-05
 FoFJK:  IHMeth= 1 ICntrl=     0 DoSepK=T KAlg= 1 I1Cent= 0 FoldK=F
 LinEq1:  Iter=  7 NonCon=     1 RMS=2.14D-07 Max=1.18D-05
 FoFJK:  IHMeth= 1 ICntrl=     0 DoSepK=T KAlg= 1 I1Cent= 0 FoldK=F
 LinEq1:  Iter=  8 NonCon=     1 RMS=8.02D-08 Max=2.65D-06
 FoFJK:  IHMeth= 1 ICntrl=     0 DoSepK=T KAlg= 1 I1Cent= 0 FoldK=F
 LinEq1:  Iter=  9 NonCon=     1 RMS=3.49D-08 Max=1.65D-06
 FoFJK:  IHMeth= 1 ICntrl=     0 DoSepK=T KAlg= 1 I1Cent= 0 FoldK=F
 LinEq1:  Iter= 10 NonCon=     1 RMS=1.84D-08 Max=7.71D-07
 FoFJK:  IHMeth= 1 ICntrl=     0 DoSepK=T KAlg= 1 I1Cent= 0 FoldK=F
 LinEq1:  Iter= 11 NonCon=     1 RMS=9.24D-09 Max=5.49D-07
 FoFJK:  IHMeth= 1 ICntrl=     0 DoSepK=T KAlg= 1 I1Cent= 0 FoldK=F
 LinEq1:  Iter= 12 NonCon=     0 RMS=4.48D-09 Max=1.70D-07
 Linear equations converged to 2.120D-08 2.120D-07 after    12 iterations.
 FoFJK:  IHMeth= 1 ICntrl=     0 DoSepK=T KAlg= 1 I1Cent= 0 FoldK=F
 FoFJK:  IHMeth= 1 ICntrl=     0 DoSepK=T KAlg= 1 I1Cent= 0 FoldK=F
 FoFJK:  IHMeth= 1 ICntrl=     0 DoSepK=T KAlg= 1 I1Cent= 0 FoldK=F
 FoFJK:  IHMeth= 1 ICntrl=     0 DoSepK=T KAlg= 1 I1Cent= 0 FoldK=F
 LinEq1:  Iter=  0 NonCon=     1 RMS=3.14D-08 Max=8.29D-07
 FoFJK:  IHMeth= 1 ICntrl=     0 DoSepK=T KAlg= 1 I1Cent= 0 FoldK=F
 LinEq1:  Iter=  1 NonCon=     1 RMS=1.66D-08 Max=4.10D-07
 FoFJK:  IHMeth= 1 ICntrl=     0 DoSepK=T KAlg= 1 I1Cent= 0 FoldK=F
 LinEq1:  Iter=  2 NonCon=     1 RMS=1.00D-08 Max=4.73D-07
 FoFJK:  IHMeth= 1 ICntrl=     0 DoSepK=T KAlg= 1 I1Cent= 0 FoldK=F
 LinEq1:  Iter=  3 NonCon=     1 RMS=4.19D-09 Max=1.14D-07
 FoFJK:  IHMeth= 1 ICntrl=     0 DoSepK=T KAlg= 1 I1Cent= 0 FoldK=F
 LinEq1:  Iter=  4 NonCon=     1 RMS=3.06D-09 Max=2.61D-07
 FoFJK:  IHMeth= 1 ICntrl=     0 DoSepK=T KAlg= 1 I1Cent= 0 FoldK=F
 LinEq1:  Iter=  5 NonCon=     1 RMS=2.06D-09 Max=6.60D-08
 FoFJK:  IHMeth= 1 ICntrl=     0 DoSepK=T KAlg= 1 I1Cent= 0 FoldK=F
 LinEq1:  Iter=  6 NonCon=     1 RMS=1.39D-09 Max=6.42D-08
 FoFJK:  IHMeth= 1 ICntrl=     0 DoSepK=T KAlg= 1 I1Cent= 0 FoldK=F
 LinEq1:  Iter=  7 NonCon=     1 RMS=7.04D-10 Max=2.81D-08
 FoFJK:  IHMeth= 1 ICntrl=     0 DoSepK=T KAlg= 1 I1Cent= 0 FoldK=F
 LinEq1:  Iter=  8 NonCon=     1 RMS=4.19D-10 Max=2.23D-08
 FoFJK:  IHMeth= 1 ICntrl=     0 DoSepK=T KAlg= 1 I1Cent= 0 FoldK=F
 LinEq1:  Iter=  9 NonCon=     1 RMS=1.79D-10 Max=8.21D-09
 FoFJK:  IHMeth= 1 ICntrl=     0 DoSepK=T KAlg= 1 I1Cent= 0 FoldK=F
 LinEq1:  Iter= 10 NonCon=     1 RMS=8.15D-11 Max=3.06D-09
 FoFJK:  IHMeth= 1 ICntrl=     0 DoSepK=T KAlg= 1 I1Cent= 0 FoldK=F
 LinEq1:  Iter= 11 NonCon=     1 RMS=4.59D-11 Max=1.32D-09
 FoFJK:  IHMeth= 1 ICntrl=     0 DoSepK=T KAlg= 1 I1Cent= 0 FoldK=F
 LinEq1:  Iter= 12 NonCon=     1 RMS=1.90D-11 Max=5.62D-10
 FoFJK:  IHMeth= 1 ICntrl=     0 DoSepK=T KAlg= 1 I1Cent= 0 FoldK=F
 LinEq1:  Iter= 13 NonCon=     0 RMS=1.20D-11 Max=4.89D-10
 Linear equations converged to 5.235D-11 5.235D-10 after    13 iterations.
 FoFJK:  IHMeth= 1 ICntrl=     0 DoSepK=T KAlg= 1 I1Cent= 0 FoldK=F
 SCF Done:  E(RCAM-B3LYP) =  -3065.74776673     a.u. after    7 cycles
            Convg  =    0.2006D-08                    47 Fock formations.
              S**2 =  0.0000                  -V/T =  2.0018
 Calling FoFJK, ICntrl=      2127 FMM=F ISym2X=0 I1Cent= 0 IOpClX= 0 NMat=1 NMatS=1 NMatT=0.
 FoFJK:  IHMeth= 1 ICntrl=  2127 DoSepK=T KAlg= 1 I1Cent= 0 FoldK=F
 ***** Axes restored to original set *****
 -------------------------------------------------------------------
 Center     Atomic                   Forces (Hartrees/Bohr)
 Number     Number              X              Y              Z
 -------------------------------------------------------------------
      1        6           0.003966640   -0.010034146   -0.000000645
      2        6           0.000767338    0.005213676   -0.000005480
      3        6          -0.001461118   -0.002312002    0.000007011
      4        6          -0.000255073   -0.001091750    0.000136531
      5        6           0.005784020    0.000248076   -0.000282215
      6        6           0.067608079   -0.094401757   -0.000411498
      7        1           0.000961438   -0.000324718    0.000000241
      8        1           0.000006895   -0.000111464   -0.000003633
      9        1          -0.000114531   -0.000010841   -0.000037170
     10        7           0.000000065    0.000407121    0.000008429
     11        8          -0.000047316   -0.000117476   -0.000001039
     12        8           0.000337081   -0.000053718   -0.000004057
     13        7           0.002140081   -0.001548157    0.000577369
     14        1           0.000149999   -0.000261528   -0.000433884
     15        1          -0.000887155   -0.000067717    0.000176454
     16       35          -0.078956444    0.104466403    0.000273586
 -------------------------------------------------------------------
 Cartesian Forces:  Max     0.104466403 RMS     0.025342013

 GradGradGradGradGradGradGradGradGradGradGradGradGradGradGradGradGradGrad
 Berny optimization.
 Using GEDIIS/GDIIS optimizer.
 Internal  Forces:  Max     0.130943425 RMS     0.015546878
 Search for a local minimum.
 Step number   2 out of a maximum of   82
 All quantities printed in internal units (Hartrees-Bohrs-Radians)
 Mixed Optimization -- RFO/linear search
 Update second derivatives using D2CorX and points    1    2
 DE= -6.88D-02 DEPred=-8.11D-02 R= 8.48D-01
 SS=  1.41D+00  RLast= 3.00D-01 DXNew= 5.0454D-01 9.0000D-01
 Trust test= 8.48D-01 RLast= 3.00D-01 DXMaxT set to 5.05D-01
 Use linear search instead of GDIIS.
     Eigenvalues ---    0.00943   0.00943   0.01895   0.02142   0.02163
     Eigenvalues ---    0.02194   0.02255   0.02302   0.02344   0.02352
     Eigenvalues ---    0.02372   0.02435   0.03038   0.15999   0.16000
     Eigenvalues ---    0.16000   0.16000   0.16006   0.22418   0.23599
     Eigenvalues ---    0.24736   0.24990   0.25000   0.25000   0.25000
     Eigenvalues ---    0.25544   0.35741   0.36093   0.36114   0.37395
     Eigenvalues ---    0.43007   0.44118   0.46877   0.47031   0.47161
     Eigenvalues ---    0.47500   0.48814   0.51209   0.52061   0.76244
     Eigenvalues ---    0.97553   0.977211000.000001000.000001000.00000
     Eigenvalues --- 1000.000001000.000001000.000001000.000001000.00000
     Eigenvalues --- 1000.000001000.000001000.000001000.000001000.00000
     Eigenvalues --- 1000.000001000.000001000.000001000.000001000.00000
     Eigenvalues --- 1000.000001000.000001000.000001000.000001000.00000
     Eigenvalues --- 1000.000001000.000001000.000001000.000001000.00000
     Eigenvalues --- 1000.000001000.00000
 RFO step:  Lambda=-2.75047546D-03 EMin= 9.43230891D-03
 Quartic linear search produced a step of  1.39863.
 Iteration  1 RMS(Cart)=  0.05257294 RMS(Int)=  0.02401609
 Iteration  2 RMS(Cart)=  0.02277957 RMS(Int)=  0.00047250
 Iteration  3 RMS(Cart)=  0.00040874 RMS(Int)=  0.00021472
 Iteration  4 RMS(Cart)=  0.00000003 RMS(Int)=  0.00021472
 Variable       Old X    -DE/DX   Delta X   Delta X   Delta X     New X
                                 (Linear)    (Quad)   (Total)
    R1        2.61725  -0.00269  -0.00343  -0.00975  -0.01316   2.60409
    R2        2.60707   0.00539   0.03858  -0.02424   0.01470   2.62176
    R3        2.03857   0.00007  -0.00112   0.00176   0.00064   2.03921
    R4        2.60693   0.00091  -0.00634   0.01086   0.00417   2.61110
    R5        2.75353   0.00032   0.00136   0.00044   0.00180   2.75533
    R6        2.59915  -0.00189  -0.00767  -0.00026  -0.00830   2.59086
    R7        2.03904   0.00009   0.00001   0.00059   0.00060   2.03963
    R8        2.63998   0.00058   0.00304  -0.00015   0.00288   2.64286
    R9        2.04538   0.00005   0.00068  -0.00043   0.00025   2.04563
   R10        2.67717   0.00179   0.05185  -0.05406  -0.00186   2.67531
   R11        2.57812  -0.00114  -0.00037  -0.00473  -0.00510   2.57302
   R12        3.19322   0.13094   0.39587   0.00876   0.40463   3.59785
   R13        2.29589   0.00007   0.00033  -0.00032   0.00001   2.29591
   R14        2.29648   0.00006   0.00018  -0.00011   0.00007   2.29655
   R15        1.89725   0.00008   0.00055  -0.00026   0.00029   1.89754
   R16        1.89810   0.00051  -0.00061   0.00338   0.00276   1.90086
    A1        2.08307   0.00524   0.03840   0.02202   0.06079   2.14386
    A2        2.09910  -0.00365  -0.02124  -0.02501  -0.04644   2.05266
    A3        2.10101  -0.00159  -0.01716   0.00300  -0.01435   2.08666
    A4        2.12056  -0.00035   0.00210  -0.01108  -0.00931   2.11125
    A5        2.07635   0.00041   0.00141   0.00547   0.00705   2.08340
    A6        2.08627  -0.00007  -0.00352   0.00561   0.00226   2.08854
    A7        2.08051  -0.00126  -0.00640  -0.01494  -0.02206   2.05845
    A8        2.08594   0.00070   0.00334   0.00836   0.01206   2.09800
    A9        2.11673   0.00057   0.00306   0.00658   0.01000   2.12673
   A10        2.11864   0.00075   0.00889  -0.00150   0.00701   2.12565
   A11        2.08732  -0.00027  -0.00742   0.00403  -0.00320   2.08412
   A12        2.07722  -0.00048  -0.00147  -0.00253  -0.00381   2.07341
   A13        2.06157   0.00401   0.02552   0.01684   0.04272   2.10429
   A14        2.11375  -0.00555  -0.04548  -0.01085  -0.05651   2.05724
   A15        2.10745   0.00154   0.01995  -0.00594   0.01384   2.12129
   A16        2.10202  -0.00839  -0.06852  -0.01133  -0.07915   2.02287
   A17        2.09198   0.00244   0.00064   0.02105   0.02126   2.11324
   A18        2.08918   0.00596   0.06789  -0.00966   0.05780   2.14698
   A19        2.05762  -0.00042   0.00163  -0.00554  -0.00391   2.05371
   A20        2.05522   0.00059  -0.00033   0.00596   0.00563   2.06085
   A21        2.17035  -0.00017  -0.00130  -0.00042  -0.00172   2.16863
   A22        2.06952  -0.00057  -0.00629  -0.00072  -0.00722   2.06230
   A23        2.07138   0.00111   0.00920   0.01498   0.02397   2.09534
   A24        2.03220  -0.00031  -0.00195   0.00121  -0.00098   2.03122
    D1       -0.00150   0.00002   0.00014   0.00275   0.00287   0.00138
    D2       -3.14095   0.00000  -0.00006  -0.00012  -0.00014  -3.14109
    D3        3.13784   0.00005   0.00056   0.00622   0.00666  -3.13869
    D4       -0.00161   0.00003   0.00036   0.00335   0.00364   0.00204
    D5       -0.00060   0.00001   0.00005  -0.00121  -0.00118  -0.00178
    D6        3.13682   0.00013   0.00166   0.01584   0.01726  -3.12910
    D7       -3.13994  -0.00002  -0.00037  -0.00464  -0.00499   3.13826
    D8       -0.00252   0.00010   0.00123   0.01241   0.01345   0.01093
    D9        0.00196  -0.00002  -0.00010  -0.00132  -0.00135   0.00061
   D10       -3.14028  -0.00002  -0.00012  -0.00232  -0.00237   3.14054
   D11        3.14139   0.00000   0.00011   0.00157   0.00168  -3.14011
   D12       -0.00084   0.00000   0.00008   0.00057   0.00066  -0.00018
   D13        3.13912   0.00001   0.00007   0.00119   0.00124   3.14036
   D14       -0.00221   0.00000   0.00010   0.00039   0.00047  -0.00173
   D15       -0.00037  -0.00001  -0.00014  -0.00160  -0.00172  -0.00209
   D16        3.14149  -0.00001  -0.00010  -0.00240  -0.00249   3.13900
   D17       -0.00030  -0.00001  -0.00010  -0.00175  -0.00178  -0.00208
   D18        3.13668   0.00000   0.00014  -0.00077  -0.00062   3.13605
   D19       -3.14124  -0.00001  -0.00008  -0.00074  -0.00074   3.14120
   D20       -0.00426   0.00000   0.00016   0.00025   0.00041  -0.00385
   D21       -0.00171   0.00003   0.00019   0.00317   0.00336   0.00164
   D22        3.10924   0.00008   0.00057   0.00483   0.00529   3.11453
   D23       -3.13872   0.00001  -0.00003   0.00218   0.00221  -3.13651
   D24       -0.02777   0.00006   0.00035   0.00384   0.00414  -0.02363
   D25        0.00216  -0.00004  -0.00022  -0.00167  -0.00187   0.00030
   D26       -3.13527  -0.00015  -0.00164  -0.01877  -0.02060   3.12732
   D27       -3.10890   0.00004   0.00062  -0.00323  -0.00262  -3.11152
   D28        0.03685  -0.00007  -0.00080  -0.02032  -0.02135   0.01550
   D29        0.29071  -0.00052  -0.00388  -0.06097  -0.06484   0.22587
   D30        2.92862  -0.00013  -0.00242  -0.02782  -0.03015   2.89847
   D31       -2.88233  -0.00043  -0.00344  -0.05887  -0.06240  -2.94473
   D32       -0.24442  -0.00004  -0.00198  -0.02573  -0.02771  -0.27213
         Item               Value     Threshold  Converged?
 Maximum Force            0.130943     0.000015     NO 
 RMS     Force            0.015547     0.000010     NO 
 Maximum Displacement     0.459610     0.000060     NO 
 RMS     Displacement     0.070795     0.000040     NO 
 Predicted change in Energy=-1.194987D-02
 GradGradGradGradGradGradGradGradGradGradGradGradGradGradGradGradGradGrad

                          Input orientation:                          
 ---------------------------------------------------------------------
 Center     Atomic      Atomic             Coordinates (Angstroms)
 Number     Number       Type             X           Y           Z
 ---------------------------------------------------------------------
      1          6           0       -1.216671   -0.222786    0.001606
      2          6           0       -0.375693   -1.314436    0.003734
      3          6           0       -0.880408   -2.600691    0.004968
      4          6           0       -2.242573   -2.756279    0.003277
      5          6           0       -3.109491   -1.658843    0.002858
      6          6           0       -2.599232   -0.338284    0.002183
      7          1           0       -0.764355    0.756942   -0.002056
      8          1           0       -0.210445   -3.446917    0.005649
      9          1           0       -2.663715   -3.753487   -0.001031
     10          7           0        1.067315   -1.105474    0.003584
     11          8           0        1.779868   -2.089518    0.006820
     12          8           0        1.479742    0.037680   -0.000295
     13          7           0       -4.448168   -1.905178   -0.031429
     14          1           0       -4.762137   -2.842763    0.143615
     15          1           0       -5.101355   -1.168979    0.176366
     16         35           0       -3.714417    1.204652   -0.021208
 ---------------------------------------------------------------------
                    Distance matrix (angstroms):
                    1          2          3          4          5
     1  C    0.000000
     2  C    1.378023   0.000000
     3  C    2.401566   1.381735   0.000000
     4  C    2.733325   2.358846   1.371023   0.000000
     5  C    2.375927   2.755407   2.419895   1.398539   0.000000
     6  C    1.387378   2.428374   2.841276   2.444157   1.415711
     7  H    1.079105   2.107533   3.359645   3.811545   3.366853
     8  H    3.377503   2.138875   1.079328   2.146283   3.406124
[...]
 ! D4    D(7,1,2,10)            -0.0535         -DE/DX =    0.0                 !
 ! D5    D(2,1,6,5)             -0.0026         -DE/DX =    0.0                 !
 ! D6    D(2,1,6,16)           179.8062         -DE/DX =    0.0                 !
 ! D7    D(7,1,6,5)           -179.9223         -DE/DX =    0.0                 !
 ! D8    D(7,1,6,16)            -0.1135         -DE/DX =    0.0                 !
 ! D9    D(1,2,3,4)              0.0632         -DE/DX =    0.0                 !
 ! D10   D(1,2,3,8)           -179.9398         -DE/DX =    0.0                 !
 ! D11   D(10,2,3,4)           179.9687         -DE/DX =    0.0                 !
 ! D12   D(10,2,3,8)            -0.0344         -DE/DX =    0.0                 !
 ! D13   D(1,2,10,11)          179.8924         -DE/DX =    0.0                 !
 ! D14   D(1,2,10,12)           -0.0995         -DE/DX =    0.0                 !
 ! D15   D(3,2,10,11)           -0.015          -DE/DX =    0.0                 !
 ! D16   D(3,2,10,12)          179.993          -DE/DX =    0.0                 !
 ! D17   D(2,3,4,5)              0.0134         -DE/DX =    0.0                 !
 ! D18   D(2,3,4,9)            179.7964         -DE/DX =    0.0                 !
 ! D19   D(8,3,4,5)           -179.9835         -DE/DX =    0.0                 !
 ! D20   D(8,3,4,9)             -0.2005         -DE/DX =    0.0                 !
 ! D21   D(3,4,5,6)             -0.0804         -DE/DX =    0.0                 !
 ! D22   D(3,4,5,13)           178.6476         -DE/DX =    0.0                 !
 ! D23   D(9,4,5,6)           -179.8657         -DE/DX =    0.0                 !
 ! D24   D(9,4,5,13)            -1.1378         -DE/DX =    0.0                 !
 ! D25   D(4,5,6,1)              0.075          -DE/DX =    0.0                 !
 ! D26   D(4,5,6,16)          -179.7333         -DE/DX =    0.0                 !
 ! D27   D(13,5,6,1)          -178.6343         -DE/DX =    0.0                 !
 ! D28   D(13,5,6,16)            1.5574         -DE/DX =    0.0                 !
 ! D29   D(4,5,13,14)           11.7301         -DE/DX =    0.0                 !
 ! D30   D(4,5,13,15)          170.5635         -DE/DX =    0.0                 !
 ! D31   D(6,5,13,14)         -169.6005         -DE/DX =    0.0                 !
 ! D32   D(6,5,13,15)          -10.7671         -DE/DX =    0.0                 !
 --------------------------------------------------------------------------------
 GradGradGradGradGradGradGradGradGradGradGradGradGradGradGradGradGradGrad

 1\1\GINC-DLT12\Freq\RCAM-B3LYP\Gen\C6H5Br1N2O2\MATHEUSMAXIMO\12-Feb-20
 23\0\\#N Geom=AllCheck Guess=TCheck SCRF=Check GenChk RCAM-B3LYP/ChkBa
 s Freq\\NA+Br CAM-B3LYP def2-TZVPD\\0,1\C,-1.2043081024,-0.2032751115,
 0.0007420475\C,-0.3687929273,-1.3039385335,0.0009746747\C,-0.878478025
 1,-2.5912216151,0.0058513087\C,-2.2388727503,-2.7734577127,0.009209249
 8\C,-3.1233607238,-1.6851026109,0.0075304057\C,-2.5648412673,-0.397951
 2184,0.0040186582\H,-0.7811395298,0.7891596882,-0.0006990643\H,-0.2008
 945657,-3.4311857005,0.0068912395\H,-2.6476836317,-3.7755920858,0.0096
 937535\N,1.0729974669,-1.0994075713,-0.0019267898\O,1.7834194603,-2.08
 52025771,0.0003688112\O,1.4851257345,0.0435208638,-0.0063239086\N,-4.4
 664008854,-1.8860528016,-0.0166833433\H,-4.829755081,-2.8070857701,0.1
 443128454\H,-5.087949593,-1.1099538848,0.1253776631\Br,-3.7108001288,1
 .1123844412,0.0093030687\\Version=EM64L-G09RevA.02\State=1-A\HF=-3065.
 7693039\RMSD=0.000e+00\RMSF=3.397e-07\ZeroPoint=0.1107193\Thermal=0.12
 04338\Dipole=-2.3559808,-0.8539757,0.1639151\DipoleDeriv=0.4653311,-0.
 0195801,0.0028168,-0.1043662,-0.1126494,0.000595,0.0021721,0.0002579,-
 0.0063169,-0.9823545,-0.0317183,-0.0024843,-0.0821444,-0.2036768,0.000
 3391,0.0031027,-0.0003037,-0.0040496,0.367071,0.1993142,0.0006227,0.31
 26717,0.1303336,-0.0014416,0.0002903,0.0001527,-0.0398306,-0.5905174,-
 0.1761815,-0.0036351,0.436541,0.088588,0.0061459,0.0059195,0.0046946,-
 0.180876,1.7462325,0.492023,0.025017,0.357972,-0.0180499,0.0046562,0.0
 467263,0.0089017,0.1452121,-0.2302173,-0.4839227,-0.0056827,-1.0422217
 ,0.4911946,-0.0047311,0.0086072,0.0031429,-0.1025482,0.158847,-0.01125
 68,-0.0000473,0.0059032,0.0849493,-0.0001533,-0.0015693,0.0001789,0.12
 58694,0.1144837,0.0361521,0.0001382,0.0240465,0.0797921,0.0003304,-0.0
 001821,0.0002287,0.133122,0.0075126,-0.0480098,0.0014545,-0.0467872,-0
 .0424527,0.0012128,-0.0010395,-0.0001446,0.1377903,2.3911445,-0.017976
 8,-0.0011353,0.1206814,1.6035544,-0.0046264,-0.0045241,-0.0043897,0.25
 3847,-1.1036719,0.4407418,-0.0003442,0.3880368,-0.8644367,0.0020624,-0
 .0001552,0.0014572,-0.2523658,-0.8729408,-0.3376022,0.0020362,-0.38625
 99,-1.0368276,0.0025547,0.0024362,0.002985,-0.2499984,-1.7047892,-0.28
 9433,-0.0469909,-0.2554741,-0.2374104,-0.0135421,-0.2442635,-0.0579182
 ,-0.484944,0.210512,0.075368,0.0106203,0.1010716,0.1689213,0.0196568,0
 .0908813,0.0407336,0.2925377,0.2424532,-0.0088542,0.0119739,-0.0595434
 ,0.2057656,-0.0156388,0.0866689,-0.0014348,0.2560351,-0.2190965,0.1809
 362,0.0056401,0.2298728,-0.3375954,0.0025801,0.0049292,0.0014578,-0.02
 34839\Polar=169.4752224,-7.9906325,132.298681,-0.0955603,-0.1392924,67
 .375183\PG=C01 [X(C6H5Br1N2O2)]\NImag=0\\0.71098190,0.03524332,0.75940
 202,-0.00113760,-0.00070490,0.14424682,-0.17756728,0.13002663,0.000029
 05,0.58683490,0.06378789,-0.27407455,0.00016455,-0.02618079,0.76540573
 ,0.00005742,0.00009600,-0.06496816,-0.00096087,-0.00152053,0.13717523,
 0.05788289,-0.00821109,-0.00004583,-0.13443033,-0.02403651,0.00019824,
 0.74781263,0.04208245,-0.05880452,0.00007163,-0.08766499,-0.31326597,0
 .00090909,-0.04214466,0.73009472,-0.00024311,0.00018281,0.00896737,0.0
 0043992,0.00077146,-0.06606509,-0.00103244,-0.00153765,0.14676287,-0.0
 5473536,0.02745515,0.00002640,-0.02562573,-0.08764901,0.00031448,-0.37
 428893,0.00194727,0.00060681,0.73621723,0.01563645,-0.01070482,0.00001
 209,-0.02941582,0.01793199,0.00005119,-0.06826685,-0.13911126,0.000405
 06,0.04926933,0.70998886,0.00041942,-0.00011278,-0.00233942,0.00011921
 ,0.00058398,0.00866659,0.00029751,-0.00016094,-0.06136189,-0.00009469,
 -0.00100424,0.12854782,-0.01795679,-0.03752680,0.00046437,0.01777768,0
 .01258350,-0.00014377,-0.04882857,0.01870233,0.00043901,-0.17798326,0.
 10882149,0.00067210,0.75489251,-0.08996864,0.02869232,0.00030950,0.013
 46192,-0.07743503,0.00012096,0.07038126,0.05881057,-0.00041373,0.03890
 318,-0.24711050,0.00076700,0.01149593,0.67666490,-0.00028206,-0.000288
 06,0.00265606,0.00099863,0.00030877,-0.00535342,-0.00069176,-0.0000161
 1,0.00185996,0.00067903,-0.00074693,-0.07127088,-0.00529971,-0.0023691
 1,0.17119961,-0.35209651,-0.07565507,0.00064086,-0.05436490,0.07209345
 ,0.00003229,-0.04078892,-0.03929465,0.00018583,0.05792587,-0.00387421,
 -0.00028680,-0.13301178,-0.02555412,0.00057326,0.63972007,-0.00873505,
 -0.12572395,-0.00001799,0.00506897,0.04578763,-0.00005262,-0.02811075,
 -0.02730195,0.00014069,0.03777526,-0.04489388,-0.00016098,-0.09096918,
 -0.26136512,0.00188781,0.06784602,0.52834714,0.00011002,0.00029748,-0.
 06025568,0.00036637,-0.00050872,0.00900066,0.00029071,0.00028817,-0.00
 293472,-0.00029081,0.00009731,0.00773127,0.00065458,0.00041785,-0.0710
 0701,-0.00082269,-0.00033045,0.11010040,-0.09874837,-0.10333257,0.0001
 8232,0.01371938,0.01586589,-0.00002391,-0.00254714,0.00380885,-0.00000
 137,-0.00114663,0.00058720,0.00000106,-0.00453183,0.00019771,0.0000070
 7,-0.00840561,-0.02698396,0.00001451,0.10270398,-0.10407109,-0.3097799
 8,0.00035987,-0.01034978,-0.01817149,0.00004866,0.00375070,-0.00206374
 ,-0.00000392,0.00046239,0.00067266,-0.00000724,0.00046838,0.00074723,0
 .00000776,0.00100056,0.00185834,0.00000481,0.11228058,0.32569766,0.000
 26711,0.00031906,-0.04142185,-0.00007804,0.00007395,0.00625568,-0.0000
 0541,-0.00001968,0.00492345,0.00000740,0.00002004,-0.00111219,0.000010
 52,0.00000736,0.00687198,-0.00001198,0.00003658,0.00437763,-0.00019918
 ,-0.00041610,0.02727937,-0.00058420,-0.00324646,0.00001544,0.01240902,
 -0.00756386,0.00000790,-0.16957075,0.14274439,-0.00012622,-0.01271429,
 0.02351585,-0.00003846,-0.00429811,-0.00144527,-0.00000115,-0.00083377
 ,-0.00088138,0.00000368,0.00068015,-0.00058139,-0.00000122,0.17753480,
 -0.00336261,-0.00424785,0.00003055,0.01962669,-0.01757926,0.00002734,0
 .14099052,-0.24092679,0.00030710,-0.00493720,0.00941087,0.00000083,-0.
 00229371,0.00080511,-0.00000184,-0.00089380,0.00011327,0.00000010,0.00
 101513,-0.00071925,0.00000077,-0.15350086,0.25015197,0.00002857,0.0000
 3061,0.00492037,-0.00008816,0.00007582,0.00553954,-0.00011279,0.000306
 26,-0.04158005,0.00005612,-0.00009327,0.00512636,-0.00001864,0.0000203
 2,0.00838496,0.00000725,-0.00001144,-0.00102568,-0.00000586,0.00000464
 ,0.00046453,0.00012410,-0.00033972,0.02789870,-0.00117574,0.00067591,-
 0.00000508,-0.00495430,0.00056700,0.00001161,-0.00828986,-0.03104318,0
 .00003084,-0.09818674,-0.09644569,0.00019284,0.00908337,0.01933061,-0.
 00003730,-0.00146138,0.00228574,-0.00002378,0.00001468,-0.00005740,0.0
 0000487,0.00124001,0.00034930,0.00000598,0.10249054,0.00110911,0.00004
 535,-0.00000669,-0.00030031,0.00223847,-0.00001470,-0.00045851,0.00027
 025,0.00000797,-0.09614497,-0.30154850,0.00012038,-0.01233321,-0.01962
 897,0.00003779,0.00280565,-0.00153327,0.00002796,-0.00002922,-0.000019
 63,-0.00000277,-0.00018860,0.00073285,0.00001116,0.10468679,0.31851458
 ,-0.00001266,-0.00001286,-0.00107152,0.00005394,-0.00001907,0.00723777
 ,0.00011166,0.00015169,0.00299036,-0.00004345,-0.00006735,-0.03469473,
 -0.00004286,0.00008892,0.00451410,-0.00001446,0.00004030,0.00511410,0.
 00000212,0.00000057,-0.00023133,-0.00001812,-0.00001808,-0.00500082,-0
 .00024880,-0.00006393,0.02371911,-0.04779107,0.01251606,0.00005186,-0.
 13237196,-0.00371505,0.00008015,-0.03352596,-0.02758689,0.00013089,0.0
 1480604,-0.00593207,-0.00008162,-0.01711818,-0.00296191,-0.00078792,0.
 01057821,0.01444000,-0.00016809,0.00136504,-0.00201024,0.00002860,0.00
 069604,0.00352552,-0.00001564,0.00061143,0.00039915,0.00000842,0.69279
 927,0.01765718,0.01888126,-0.00006437,-0.00267454,-0.11472948,0.000077
 92,-0.03194756,0.00793712,0.00002196,-0.00309999,-0.00862351,0.0000793
 2,-0.00158352,-0.00623573,-0.00010173,0.00719707,-0.00170592,-0.000048
 73,0.00150481,-0.00333824,0.00000318,-0.00010551,-0.00293090,-0.000004
 78,-0.00170387,0.00005905,0.00001203,-0.04088982,0.97701489,0.00003205
 ,-0.00002537,-0.00304459,0.00007029,0.00003174,-0.08354759,0.00013550,
 0.00003238,-0.00340599,-0.00001375,0.00005581,0.00732779,0.00003691,0.
 00001959,-0.00127444,0.00003346,-0.00000514,0.00785109,-0.00001279,0.0
 0001203,-0.00461134,-0.00000849,-0.00001030,-0.00424801,0.00000991,-0.
 00001083,0.00132148,-0.00052827,-0.00233479,0.25116381,-0.00221258,-0.
 00764085,0.00001973,-0.05349414,0.04672555,-0.00002920,-0.00049085,0.0
 0378721,-0.00000551,-0.00241397,0.00195890,0.00001662,0.00450836,0.002
 78268,0.00021614,-0.00373059,-0.00278488,0.00005909,0.00072033,-0.0001
 1857,-0.00001335,-0.00415020,-0.00018251,0.00000790,-0.00020183,-0.000
 15123,-0.00000382,-0.30331778,0.20332845,-0.00037773,0.32328617,-0.000
 82126,0.00162096,0.00000665,0.03206085,-0.00028539,0.00002186,-0.00938
 925,-0.00901041,0.00004178,0.00365953,0.00114183,-0.00003797,-0.003480
 36,0.00013258,-0.00013927,0.00113824,0.00238765,-0.00003527,-0.0016802
 3,0.00098379,0.00001429,-0.00122011,0.00327216,-0.00000563,0.00021698,
 0.,0.00000261,0.20084987,-0.38211501,0.00071643,-0.26103678,0.51055548
 ,0.00001663,0.00000080,0.00344481,-0.00000224,0.00001244,0.02109117,0.
 00004002,0.00002683,0.00113942,-0.00001004,-0.00000627,-0.00050387,-0.
 00000930,-0.00000856,0.00017270,-0.00001004,-0.00000536,-0.00118297,0.
 00000409,-0.00000348,0.00049266,0.00001081,-0.00001060,-0.00012472,-0.
 00000263,0.00000131,-0.00004641,-0.00034763,0.00068840,-0.08390891,0.0
 0044239,-0.00121850,0.03099475,-0.00248544,-0.00202207,0.00003273,-0.0
 2844967,-0.05445597,0.00026239,-0.00422756,0.00668186,0.00000156,-0.00
 392717,-0.00106224,0.00003685,0.00392096,-0.00086096,0.00017363,-0.000
 28890,-0.00368485,0.00002024,-0.00408472,-0.00201948,0.00001189,0.0002
 9944,-0.00018329,0.00000081,-0.00090396,-0.00009639,0.00000144,-0.2028
 2922,-0.15178985,0.00066601,0.04726875,0.03719043,-0.00014183,0.199932
 48,0.01168000,-0.00662752,-0.00001136,-0.04014151,-0.02464214,0.000223
 48,-0.00104068,0.00358464,0.00000438,-0.00273539,0.00165562,0.00000580
 ,0.00466709,0.00121965,0.00019348,-0.00408360,-0.00202764,0.00005575,-
 0.00105566,0.00286470,-0.00001570,0.00136080,0.00146355,-0.00000490,-0
 .00037673,-0.00006267,0.00000487,-0.14954404,-0.48316357,0.00153067,0.
 01333599,-0.12949367,0.00052119,0.17214515,0.63469442,-0.00002182,0.00
 001546,0.00115283,0.00022005,0.00023544,0.02108981,0.00001916,-0.00001
 258,0.00361381,0.00001579,-0.00000680,-0.00108181,-0.00003357,-0.00000
 190,0.00023946,0.00000434,0.00001314,-0.00061056,0.00001000,-0.0000009
 0,-0.00013361,-0.00000381,-0.00000229,0.00042743,0.00000163,0.00000307
 ,-0.00058328,0.00066410,0.00155481,-0.08399569,-0.00006067,0.00046106,
 0.02882273,-0.00084416,-0.00226096,0.03108118,0.01018299,0.00129792,-0
 .00003987,-0.01862095,-0.00496394,0.00012561,0.01367797,0.00593920,-0.
 00008659,-0.05893744,0.01230431,-0.00111154,-0.34765613,-0.03213635,-0
 .00689847,-0.03672790,-0.02449486,-0.00029107,-0.00031072,0.00026480,-
 0.00003207,-0.00044371,-0.00006751,-0.00000439,0.00208958,-0.00118110,
 -0.00001665,0.01635285,0.00217897,-0.00003109,-0.00488365,0.00267078,-
 0.00000115,-0.00412781,-0.00412122,0.00002244,0.76217870,0.00844372,-0
 .00903983,-0.00023255,-0.00333991,0.00639881,0.00001133,-0.00257214,-0
 .01000107,0.00056068,0.04200896,0.01132070,0.00077896,-0.03345442,-0.1
 3853020,-0.00042525,-0.05142459,-0.01207006,-0.00079644,-0.00121309,0.
 00020007,0.00001002,0.00116201,0.00037088,-0.00004788,0.00058023,0.002
 05496,-0.00048664,0.00223328,0.00029061,-0.00008854,-0.00097889,0.0008
 2897,0.00001388,-0.00037963,0.00003725,0.00002117,-0.01447207,0.864590
 58,0.00200365,0.00060166,0.00428744,-0.00315606,-0.00051305,-0.0007015
 2,0.00213126,0.00017650,0.00460947,-0.00260002,0.00267665,0.01024914,0
 .01704258,0.00309581,-0.04185267,-0.00216255,-0.00268960,0.00861597,0.
 00006779,-0.00001427,-0.00014886,0.00008065,0.00002422,-0.00021523,-0.
 00015344,0.00013056,-0.00293348,0.00266570,0.00037228,-0.00045413,-0.0
 0076531,0.00047271,0.00001451,-0.00060887,-0.00067505,0.00001920,-0.08
 450000,-0.02242021,0.04102604,0.00041569,-0.00171970,-0.00018009,0.000
 17963,0.00042203,0.00004010,-0.00034588,0.00000031,-0.00023607,0.00210
 889,-0.00179460,-0.00050890,-0.01010294,-0.03567370,0.00610502,-0.0058
 7320,0.00193329,0.00021777,-0.00037156,0.00004399,-0.00001433,-0.00000
 507,0.00000914,0.00002964,-0.00034887,0.00151290,0.00021272,-0.0002326
 9,-0.00002003,0.00001290,0.00007545,0.00003942,0.00000099,0.00012749,0
 .00017450,-0.00000078,-0.11927946,-0.12350450,0.02886419,0.11958127,-0
 .00091426,-0.00008760,0.00007566,0.00171373,0.00052991,-0.00000821,-0.
 00129917,-0.00085434,-0.00044986,0.00377219,0.00133631,-0.00046155,-0.
 00472736,0.00004304,0.00031830,0.00252645,0.00167296,0.00045238,0.0000
 0601,0.00007575,-0.00001174,0.00007680,0.00000976,0.00003047,-0.000228
 66,-0.00028254,0.00036472,-0.00156104,-0.00019920,0.00011633,0.0004738
 9,-0.00031519,-0.00001506,0.00035666,0.00035729,-0.00002788,-0.1256505
 5,-0.40758931,0.06003349,0.13877731,0.41950934,-0.00094894,-0.00020056
 ,0.00152208,0.00103981,-0.00007799,0.00019000,-0.00043027,-0.00010067,
 -0.00089574,0.00091537,-0.00060517,-0.00164795,-0.00694731,-0.00402819
 ,-0.00431308,0.00044611,0.00087045,0.00284466,-0.00004693,0.00000322,-
 0.00030920,0.00000359,0.00000129,0.00012712,0.00020627,-0.00016734,0.0
 0064214,-0.00087191,-0.00014857,0.00004483,0.00025743,-0.00014962,-0.0
 0004334,0.00018730,0.00021982,-0.00003057,0.03896802,0.07619587,-0.011
 85576,-0.02909337,-0.06580170,0.01661135,-0.00059923,0.00041197,-0.000
 14688,0.00066830,-0.00006322,-0.00000543,-0.00054882,0.00150345,-0.000
 09617,-0.00373470,-0.00385191,0.00035214,-0.02035045,0.02847961,0.0053
 2541,0.00034285,0.00217627,-0.00036628,0.00001105,-0.00004233,0.000036
 85,-0.00031677,-0.00013996,-0.00001463,0.00012126,0.00016892,0.0000117
 3,-0.00063951,0.00001136,-0.00001262,0.00023497,-0.00022448,0.00000834
 ,0.00015868,0.00006644,0.00000492,-0.21676307,0.18285452,0.04043398,0.
 01332603,-0.01251330,-0.00342121,0.22720160,0.00125347,-0.00061697,0.0
 0001375,-0.00189348,-0.00073682,0.00001801,0.00148674,0.00121092,-0.00
 003930,-0.00491015,0.00084134,-0.00043876,0.00481432,0.01164547,0.0013
 7787,-0.00440006,0.00018234,0.00025971,-0.00026427,0.00006261,-0.00002
 559,-0.00012794,-0.00000538,0.00003793,-0.00007476,0.00009702,-0.00000
 170,0.00174782,0.00033883,-0.00003503,-0.00038665,0.00017828,0.0000006
 0,-0.00043833,-0.00061034,0.00001070,0.18262756,-0.30615539,-0.0413459
 8,0.01887171,-0.01368665,-0.00583179,-0.19825481,0.30969954,-0.0004488
 5,-0.00003746,-0.00062558,0.00095644,0.00034890,0.00000025,-0.00091343
 ,-0.00010519,0.00200961,0.00044852,-0.00077797,0.00298059,-0.00702653,
 0.00199040,-0.00465929,0.00129087,0.00042552,-0.00045555,0.00003169,0.
 00000433,0.00011384,-0.00004604,-0.00000742,-0.00030966,0.00000505,-0.
 00006830,-0.00079537,-0.00083359,-0.00010400,-0.00008469,0.00022785,-0
 .00014810,-0.00000479,0.00019733,0.00021361,-0.00000399,0.05404086,-0.
 05330174,-0.00941177,-0.00554790,0.00538995,-0.00294177,-0.04206233,0.
 04600349,0.01497665,-0.02351088,0.03172767,0.00009258,-0.00170965,-0.0
 0341697,0.00003301,-0.00148993,0.00053706,-0.00000736,0.00263620,-0.00
 145013,0.00001425,-0.00834484,0.00356806,-0.00007981,-0.07098355,0.055
 11935,0.00022574,0.00093198,0.00097888,-0.00001165,0.00005742,0.000045
 17,-0.00000027,-0.00012821,0.00020101,-0.00000120,0.00061749,0.0019368
 4,-0.00001229,-0.00119846,0.00002638,0.00000158,-0.00038335,-0.0003311
 5,0.00000236,0.00326876,-0.00594347,0.00065646,0.00074522,-0.00080872,
 -0.00026396,0.00088782,-0.00005117,-0.00031994,0.09860400,0.01097933,-
 0.00893432,-0.00000638,0.00000235,0.00262760,-0.00000979,0.00086792,-0
 .00056817,0.00000054,-0.00577654,-0.00230771,0.00004821,0.02481553,-0.
 02845530,-0.00004348,0.05057263,-0.10372755,-0.00018190,-0.00070719,0.
 00092952,0.00000634,0.00000155,0.00007901,-0.00000961,0.00123773,-0.00
 093697,0.00000392,-0.00151062,-0.00148019,-0.00000499,0.00088768,0.000
 11798,0.00000236,0.00061897,0.00075043,-0.00000154,-0.00019594,-0.0027
 0696,0.00007427,0.00092793,-0.00051952,-0.00017904,-0.00058253,-0.0024
 4481,0.00017397,-0.08213880,0.14757697,0.00016017,-0.00016189,0.002529
 01,-0.00000831,0.00003230,0.00438909,0.00000788,-0.00000973,-0.0006328
 3,-0.00001717,-0.00001016,0.00338318,0.00020162,-0.00001622,0.00383195
 ,0.00009426,-0.00014092,-0.01816361,-0.00003061,0.00000001,-0.00281077
 ,-0.00000268,-0.00000194,-0.00038484,0.00000203,-0.00000564,-0.0001821
 1,0.00000494,-0.00000292,0.00086639,0.00000843,-0.00000304,-0.00035775
 ,0.00000268,-0.00000510,-0.00000695,-0.00014404,0.00020734,-0.00124835
 ,0.00009812,-0.00000531,0.00005522,-0.00004782,-0.00000391,-0.00078847
 ,-0.00032950,0.00012712,0.00952084\\0.00000056,-0.00000009,-0.00000005
 ,-0.00000055,0.00000030,0.00000005,0.00000003,-0.00000026,-0.00000016,
 -0.00000009,-0.00000020,-0.00000010,0.00000107,0.00000057,0.00000002,-
 0.00000042,-0.00000084,0.,0.00000017,0.00000003,0.00000031,-0.00000011
 ,0.00000002,-0.00000021,-0.00000004,0.00000010,-0.00000023,0.00000027,
 0.00000050,0.00000029,0.00000033,-0.00000017,-0.00000011,-0.00000026,-
 0.00000060,0.00000018,-0.00000082,0.00000016,-0.00000018,0.00000005,0.
 00000009,-0.00000010,0.00000004,0.,0.,-0.00000023,0.00000039,0.0000002
 7\\\@


 Children are likely to live up to what you believe of them.
 -- Lady Bird Johnson
 Job cpu time:  0 days  6 hours 48 minutes 46.7 seconds.
 File lengths (MBytes):  RWF=    327 Int=      0 D2E=      0 Chk=     14 Scr=      1
 Normal termination of Gaussian 09 at Sun Feb 12 11:04:22 2023.
