 Entering Gaussian System, Link 0=g09
 Initial command:
 /apps/software//g09/l1.exe /scratch/matheusmaximo/72119.cluster.abaxnet/Gau-22941.inp -scrdir=/scratch/matheusmaximo/72119.cluster.abaxnet/
 Entering Link 1 = /apps/software//g09/l1.exe PID=     22942.
  
 Copyright (c) 1988,1990,1992,1993,1995,1998,2003,2009, Gaussian, Inc.
                  All Rights Reserved.
  
 This is part of the Gaussian(R) 09 program.  It is based on
 the Gaussian(R) 03 system (copyright 2003, Gaussian, Inc.),
 the Gaussian(R) 98 system (copyright 1998, Gaussian, Inc.),
 the Gaussian(R) 94 system (copyright 1995, Gaussian, Inc.),
 the Gaussian 92(TM) system (copyright 1992, Gaussian, Inc.),
 the Gaussian 90(TM) system (copyright 1990, Gaussian, Inc.),
 the Gaussian 88(TM) system (copyright 1988, Gaussian, Inc.),
 the Gaussian 86(TM) system (copyright 1986, Carnegie Mellon
 University), and the Gaussian 82(TM) system (copyright 1983,
 Carnegie Mellon University). Gaussian is a federally registered
 trademark of Gaussian, Inc.
  
 This software contains proprietary and confidential information,
 including trade secrets, belonging to Gaussian, Inc.
  
 This software is provided under written license and may be
 used, copied, transmitted, or stored only in accord with that
 written license.
  
 The following legend is applicable only to US Government
 contracts under FAR:
  
                    RESTRICTED RIGHTS LEGEND
  
 Use, reproduction and disclosure by the US Government is
 subject to restrictions as set forth in subparagraphs (a)
 and (c) of the Commercial Computer Software - Restricted
 Rights clause in FAR 52.227-19.
  
 Gaussian, Inc.
 340 Quinnipiac St., Bldg. 40, Wallingford CT 06492
  
  
 ---------------------------------------------------------------
 Warning -- This program may not be used in any manner that
 competes with the business of Gaussian, Inc. or will provide
 assistance to any competitor of Gaussian, Inc.  The licensee
 of this program is prohibited from giving any competitor of
 Gaussian, Inc. access to this program.  By using this program,
 the user acknowledges that Gaussian, Inc. is engaged in the
 business of creating and licensing software in the field of
 computational chemistry and represents and warrants to the
 licensee that it is not a competitor of Gaussian, Inc. and that
 it will not use this program in any manner prohibited above.
 ---------------------------------------------------------------
  

 Cite this work as:
 Gaussian 09, Revision A.02,
 M. J. Frisch, G. W. Trucks, H. B. Schlegel, G. E. Scuseria, 
 M. A. Robb, J. R. Cheeseman, G. Scalmani, V. Barone, B. Mennucci, 
 G. A. Petersson, H. Nakatsuji, M. Caricato, X. Li, H. P. Hratchian, 
 A. F. Izmaylov, J. Bloino, G. Zheng, J. L. Sonnenberg, M. Hada, 
 M. Ehara, K. Toyota, R. Fukuda, J. Hasegawa, M. Ishida, T. Nakajima, 
 Y. Honda, O. Kitao, H. Nakai, T. Vreven, J. A. Montgomery, Jr., 
 J. E. Peralta, F. Ogliaro, M. Bearpark, J. J. Heyd, E. Brothers, 
 K. N. Kudin, V. N. Staroverov, R. Kobayashi, J. Normand, 
 K. Raghavachari, A. Rendell, J. C. Burant, S. S. Iyengar, J. Tomasi, 
 M. Cossi, N. Rega, J. M. Millam, M. Klene, J. E. Knox, J. B. Cross, 
 V. Bakken, C. Adamo, J. Jaramillo, R. Gomperts, R. E. Stratmann, 
 O. Yazyev, A. J. Austin, R. Cammi, C. Pomelli, J. W. Ochterski, 
 R. L. Martin, K. Morokuma, V. G. Zakrzewski, G. A. Voth, 
 P. Salvador, J. J. Dannenberg, S. Dapprich, A. D. Daniels, 
 O. Farkas, J. B. Foresman, J. V. Ortiz, J. Cioslowski, 
 and D. J. Fox, Gaussian, Inc., Wallingford CT, 2009.
 
 ******************************************
 Gaussian 09:  EM64L-G09RevA.02 11-Jun-2009
                 8-Mar-2023 
 ******************************************
 %chk=/home/matheusmaximo/Gaussian/SINGLEPOINT/br/br_SP.chk
 ----------------------------------------------------
 # td=(nstates=15) cam-b3lyp/gen scf=qc int=ultrafine
 ----------------------------------------------------
 1/38=1/1;
 2/12=2,17=6,18=5,40=1/2;
 3/5=7,11=2,16=1,25=1,30=1,74=-40,75=-5/1,2,8,3;
 4//1;
 5/5=2,8=3,38=5/8;
 8/6=1,10=1,108=15/1;
 9/41=15,42=1/14;
 6/7=2,8=2,9=2,10=2/1;
 99/5=1,9=1/99;
 ---------------------------------------
 NA+br CAM-B3LYP def2-TZVPD Single point
 ---------------------------------------
 Symbolic Z-matrix:
 Charge =  0 Multiplicity = 1
 C                    -0.52189  -0.62065  -0.002 
 C                    -1.7038    0.09534  -0.00097 
 C                    -1.70356   1.47986   0.00007 
 C                    -0.50567   2.14991  -0.00125 
 C                     0.71724   1.46338  -0.00391 
 C                     0.67155   0.06102  -0.00342 
 H                    -0.55017  -1.69916  -0.00038 
 H                    -2.64268   2.01156   0.00184 
 H                    -0.49431   3.23216  -0.0038 
 N                    -2.96916  -0.62539   0.00111 
 O                    -3.99248   0.02983   0.00399 
 O                    -2.93181  -1.83978  -0.00001 
 N                     1.89204   2.14436  -0.03278 
 H                     1.89136   3.13492   0.12548 
 H                     2.7559    1.65183   0.10862 
 Br                    2.29288  -0.92165   0.00077 
 
                          Input orientation:                          
 ---------------------------------------------------------------------
 Center     Atomic      Atomic             Coordinates (Angstroms)
 Number     Number       Type             X           Y           Z
 ---------------------------------------------------------------------
      1          6           0       -0.521889   -0.620647   -0.001999
      2          6           0       -1.703797    0.095340   -0.000970
      3          6           0       -1.703557    1.479862    0.000066
      4          6           0       -0.505670    2.149907   -0.001254
      5          6           0        0.717242    1.463381   -0.003908
      6          6           0        0.671549    0.061016   -0.003422
      7          1           0       -0.550173   -1.699164   -0.000382
      8          1           0       -2.642681    2.011559    0.001842
      9          1           0       -0.494307    3.232157   -0.003798
     10          7           0       -2.969163   -0.625386    0.001107
     11          8           0       -3.992481    0.029830    0.003994
     12          8           0       -2.931810   -1.839782   -0.000010
     13          7           0        1.892041    2.144365   -0.032776
     14          1           0        1.891358    3.134922    0.125475
     15          1           0        2.755898    1.651829    0.108618
     16         35           0        2.292881   -0.921648    0.000771
 ---------------------------------------------------------------------
                    Distance matrix (angstroms):
                    1          2          3          4          5
     1  C    0.000000
     2  C    1.381863   0.000000
     3  C    2.410079   1.384522   0.000000
     4  C    2.770602   2.378393   1.372551   0.000000
     5  C    2.424587   2.780823   2.420858   1.402440   0.000000
     6  C    1.374395   2.375595   2.766633   2.397773   1.403109
     7  H    1.078889   2.133329   3.381789   3.849328   3.407058
     8  H    3.380279   2.133871   1.079194   2.141487   3.404353
     9  H    3.852903   3.361918   2.129046   1.082312   2.143926
    10  N    2.447281   1.456228   2.456385   3.710937   4.237045
    11  O    3.531029   2.289627   2.709573   4.080761   4.923071
    12  O    2.700743   2.291880   3.539582   4.669452   4.922040
    13  N    3.670599   4.138788   3.656633   2.397924   1.358206
    14  H    4.465905   4.709584   3.959591   2.594621   2.046787
    15  H    3.990022   4.724780   4.464089   3.301209   2.050438
    16  Br   2.830819   4.124039   4.662484   4.155279   2.858500
                    6          7          8          9         10
     6  C    0.000000
     7  H    2.142626   0.000000
     8  H    3.845616   4.260054   0.000000
     9  H    3.378662   4.931638   2.470911   0.000000
    10  N    3.704855   2.646604   2.657079   4.583183   0.000000
    11  O    4.664140   3.852132   2.397752   4.742592   1.215112
    12  O    4.073971   2.385785   3.862179   5.627255   1.214971
    13  N    2.414706   4.553918   4.536798   2.622744   5.594995
    14  H    3.309599   5.417130   4.672766   2.391143   6.146547
    15  H    2.624453   4.708624   5.411605   3.615786   6.162272
    16  Br   1.895881   2.947454   5.741383   5.002253   5.270377
                   11         12         13         14         15
    11  O    0.000000
    12  O    2.149532   0.000000
    13  N    6.253016   6.256520   0.000000
    14  H    6.654015   6.930107   1.003119   0.000000
    15  H    6.941358   6.674817   1.004407   1.716764   0.000000
    16  Br   6.356972   5.304749   3.092286   4.078301   2.617022
                   16
    16  Br   0.000000
 Stoichiometry    C6H5BrN2O2
 Framework group  C1[X(C6H5BrN2O2)]
 Deg. of freedom    42
 Full point group                 C1      NOp   1
 Largest Abelian subgroup         C1      NOp   1
 Largest concise Abelian subgroup C1      NOp   1
                         Standard orientation:                         
 ---------------------------------------------------------------------
 Center     Atomic      Atomic             Coordinates (Angstroms)
 Number     Number       Type             X           Y           Z
 ---------------------------------------------------------------------
      1          6           0       -0.521889   -0.620647   -0.001999
      2          6           0       -1.703797    0.095340   -0.000970
      3          6           0       -1.703557    1.479862    0.000066
      4          6           0       -0.505670    2.149907   -0.001254
      5          6           0        0.717242    1.463381   -0.003908
      6          6           0        0.671549    0.061016   -0.003422
      7          1           0       -0.550173   -1.699164   -0.000382
      8          1           0       -2.642681    2.011559    0.001842
      9          1           0       -0.494307    3.232157   -0.003798
     10          7           0       -2.969163   -0.625386    0.001107
     11          8           0       -3.992481    0.029830    0.003994
     12          8           0       -2.931810   -1.839782   -0.000010
     13          7           0        1.892041    2.144365   -0.032776
     14          1           0        1.891358    3.134922    0.125475
     15          1           0        2.755898    1.651829    0.108618
     16         35           0        2.292881   -0.921648    0.000771
 ---------------------------------------------------------------------
 Rotational constants (GHZ):      1.5240557      0.4652476      0.3564591
 General basis read from cards:  (5D, 7F)
 There are   478 symmetry adapted basis functions of A   symmetry.
 Integral buffers will be    131072 words long.
 Raffenetti 2 integral format.
 Two-electron integral symmetry is turned on.
   478 basis functions,   765 primitive gaussians,   546 cartesian basis functions
    53 alpha electrons       53 beta electrons
       nuclear repulsion energy       842.4284124643 Hartrees.
 NAtoms=   16 NActive=   16 NUniq=   16 SFac= 7.50D-01 NAtFMM=   80 NAOKFM=F Big=F
 One-electron integrals computed using PRISM.
 NBasis=   478 RedAO= T  NBF=   478
 NBsUse=   477 1.00D-06 NBFU=   477
 Harris functional with IExCor=20419 diagonalized for initial guess.
 ExpMin= 2.90D-02 ExpMax= 5.65D+05 ExpMxC= 5.46D+03 IAcc=3 IRadAn=         5 AccDes= 0.00D+00
 HarFok:  IExCor=20419 AccDes= 0.00D+00 IRadAn=         5 IDoV= 1
 ScaDFX=  1.000000  1.000000  1.000000  1.000000
 FoFCou: FMM=F IPFlag=           0 FMFlag=      100000 FMFlg1=           0
         NFxFlg=           0 DoJE=T BraDBF=F KetDBF=T FulRan=T
         Omega=  0.000000  0.000000  1.000000  0.000000  0.000000 ICntrl=     500 IOpCl=  0
         NMat0=    1 NMatS0=    1 NMatT0=    0 NMatD0=    1 NMtDS0=    0 NMtDT0=    0
         I1Cent=           4 NGrid=           0.
 Petite list used in FoFCou.
 Initial guess orbital symmetries:
       Occupied  (A) (A) (A) (A) (A) (A) (A) (A) (A) (A) (A) (A)
                 (A) (A) (A) (A) (A) (A) (A) (A) (A) (A) (A) (A)
                 (A) (A) (A) (A) (A) (A) (A) (A) (A) (A) (A) (A)
                 (A) (A) (A) (A) (A) (A) (A) (A) (A) (A) (A) (A)
                 (A) (A) (A) (A) (A)
       Virtual   (A) (A) (A) (A) (A) (A) (A) (A) (A) (A) (A) (A)
                 (A) (A) (A) (A) (A) (A) (A) (A) (A) (A) (A) (A)
                 (A) (A) (A) (A) (A) (A) (A) (A) (A) (A) (A) (A)
                 (A) (A) (A) (A) (A) (A) (A) (A) (A) (A) (A) (A)
                 (A) (A) (A) (A) (A) (A) (A) (A) (A) (A) (A) (A)
                 (A) (A) (A) (A) (A) (A) (A) (A) (A) (A) (A) (A)
                 (A) (A) (A) (A) (A) (A) (A) (A) (A) (A) (A) (A)
                 (A) (A) (A) (A) (A) (A) (A) (A) (A) (A) (A) (A)
                 (A) (A) (A) (A) (A) (A) (A) (A) (A) (A) (A) (A)
                 (A) (A) (A) (A) (A) (A) (A) (A) (A) (A) (A) (A)
                 (A) (A) (A) (A) (A) (A) (A) (A) (A) (A) (A) (A)
                 (A) (A) (A) (A) (A) (A) (A) (A) (A) (A) (A) (A)
                 (A) (A) (A) (A) (A) (A) (A) (A) (A) (A) (A) (A)
                 (A) (A) (A) (A) (A) (A) (A) (A) (A) (A) (A) (A)
                 (A) (A) (A) (A) (A) (A) (A) (A) (A) (A) (A) (A)
                 (A) (A) (A) (A) (A) (A) (A) (A) (A) (A) (A) (A)
                 (A) (A) (A) (A) (A) (A) (A) (A) (A) (A) (A) (A)
                 (A) (A) (A) (A) (A) (A) (A) (A) (A) (A) (A) (A)
                 (A) (A) (A) (A) (A) (A) (A) (A) (A) (A) (A) (A)
                 (A) (A) (A) (A) (A) (A) (A) (A) (A) (A) (A) (A)
                 (A) (A) (A) (A) (A) (A) (A) (A) (A) (A) (A) (A)
                 (A) (A) (A) (A) (A) (A) (A) (A) (A) (A) (A) (A)
                 (A) (A) (A) (A) (A) (A) (A) (A) (A) (A) (A) (A)
                 (A) (A) (A) (A) (A) (A) (A) (A) (A) (A) (A) (A)
                 (A) (A) (A) (A) (A) (A) (A) (A) (A) (A) (A) (A)
                 (A) (A) (A) (A) (A) (A) (A) (A) (A) (A) (A) (A)
                 (A) (A) (A) (A) (A) (A) (A) (A) (A) (A) (A) (A)
                 (A) (A) (A) (A) (A) (A) (A) (A) (A) (A) (A) (A)
                 (A) (A) (A) (A) (A) (A) (A) (A) (A) (A) (A) (A)
                 (A) (A) (A) (A) (A) (A) (A) (A) (A) (A) (A) (A)
                 (A) (A) (A) (A) (A) (A) (A) (A) (A) (A) (A) (A)
                 (A) (A) (A) (A) (A) (A) (A) (A) (A) (A) (A) (A)
                 (A) (A) (A) (A) (A) (A) (A) (A) (A) (A) (A) (A)
                 (A) (A) (A) (A) (A) (A) (A) (A) (A) (A) (A) (A)
                 (A) (A) (A) (A) (A) (A) (A) (A) (A) (A) (A) (A)
                 (A) (A) (A) (A)
 The electronic state of the initial guess is 1-A.
 FoFJK:  IHMeth= 1 ICntrl=     0 DoSepK=T KAlg= 1 I1Cent= 0 FoldK=F
 Gradient too large for Newton-Raphson -- use scaled steepest descent instead.
 FoFJK:  IHMeth= 1 ICntrl=     0 DoSepK=T KAlg= 1 I1Cent= 0 FoldK=F
 FoFJK:  IHMeth= 1 ICntrl=     0 DoSepK=T KAlg= 1 I1Cent= 0 FoldK=F
 FoFJK:  IHMeth= 1 ICntrl=     0 DoSepK=T KAlg= 1 I1Cent= 0 FoldK=F
 FoFJK:  IHMeth= 1 ICntrl=     0 DoSepK=T KAlg= 1 I1Cent= 0 FoldK=F
 Gradient too large for Newton-Raphson -- use scaled steepest descent instead.
 FoFJK:  IHMeth= 1 ICntrl=     0 DoSepK=T KAlg= 1 I1Cent= 0 FoldK=F
 FoFJK:  IHMeth= 1 ICntrl=     0 DoSepK=T KAlg= 1 I1Cent= 0 FoldK=F
 FoFJK:  IHMeth= 1 ICntrl=     0 DoSepK=T KAlg= 1 I1Cent= 0 FoldK=F
 FoFJK:  IHMeth= 1 ICntrl=     0 DoSepK=T KAlg= 1 I1Cent= 0 FoldK=F
 Gradient too large for Newton-Raphson -- use scaled steepest descent instead.
 FoFJK:  IHMeth= 1 ICntrl=     0 DoSepK=T KAlg= 1 I1Cent= 0 FoldK=F
 FoFJK:  IHMeth= 1 ICntrl=     0 DoSepK=T KAlg= 1 I1Cent= 0 FoldK=F
 FoFJK:  IHMeth= 1 ICntrl=     0 DoSepK=T KAlg= 1 I1Cent= 0 FoldK=F
 Gradient too large for Newton-Raphson -- use scaled steepest descent instead.
 FoFJK:  IHMeth= 1 ICntrl=     0 DoSepK=T KAlg= 1 I1Cent= 0 FoldK=F
 FoFJK:  IHMeth= 1 ICntrl=     0 DoSepK=T KAlg= 1 I1Cent= 0 FoldK=F
 FoFJK:  IHMeth= 1 ICntrl=     0 DoSepK=T KAlg= 1 I1Cent= 0 FoldK=F
 Gradient too large for Newton-Raphson -- use scaled steepest descent instead.
 FoFJK:  IHMeth= 1 ICntrl=     0 DoSepK=T KAlg= 1 I1Cent= 0 FoldK=F
 FoFJK:  IHMeth= 1 ICntrl=     0 DoSepK=T KAlg= 1 I1Cent= 0 FoldK=F
 FoFJK:  IHMeth= 1 ICntrl=     0 DoSepK=T KAlg= 1 I1Cent= 0 FoldK=F
 Gradient too large for Newton-Raphson -- use scaled steepest descent instead.
 FoFJK:  IHMeth= 1 ICntrl=     0 DoSepK=T KAlg= 1 I1Cent= 0 FoldK=F
 FoFJK:  IHMeth= 1 ICntrl=     0 DoSepK=T KAlg= 1 I1Cent= 0 FoldK=F
 FoFJK:  IHMeth= 1 ICntrl=     0 DoSepK=T KAlg= 1 I1Cent= 0 FoldK=F
 LinEq1:  Iter=  0 NonCon=     1 RMS=5.69D-05 Max=3.08D-03
 AX will form     1 AO Fock derivatives at one time.
 FoFJK:  IHMeth= 1 ICntrl=     0 DoSepK=T KAlg= 1 I1Cent= 0 FoldK=F
 LinEq1:  Iter=  1 NonCon=     1 RMS=6.29D-05 Max=5.38D-03
 FoFJK:  IHMeth= 1 ICntrl=     0 DoSepK=T KAlg= 1 I1Cent= 0 FoldK=F
 LinEq1:  Iter=  2 NonCon=     1 RMS=2.12D-05 Max=1.60D-03
 FoFJK:  IHMeth= 1 ICntrl=     0 DoSepK=T KAlg= 1 I1Cent= 0 FoldK=F
 LinEq1:  Iter=  3 NonCon=     1 RMS=1.48D-05 Max=6.06D-04
 FoFJK:  IHMeth= 1 ICntrl=     0 DoSepK=T KAlg= 1 I1Cent= 0 FoldK=F
 LinEq1:  Iter=  4 NonCon=     1 RMS=3.53D-06 Max=2.24D-04
 FoFJK:  IHMeth= 1 ICntrl=     0 DoSepK=T KAlg= 1 I1Cent= 0 FoldK=F
 LinEq1:  Iter=  5 NonCon=     1 RMS=2.41D-06 Max=1.31D-04
 FoFJK:  IHMeth= 1 ICntrl=     0 DoSepK=T KAlg= 1 I1Cent= 0 FoldK=F
 LinEq1:  Iter=  6 NonCon=     1 RMS=7.06D-07 Max=3.19D-05
 FoFJK:  IHMeth= 1 ICntrl=     0 DoSepK=T KAlg= 1 I1Cent= 0 FoldK=F
 LinEq1:  Iter=  7 NonCon=     1 RMS=4.79D-07 Max=3.43D-05
 FoFJK:  IHMeth= 1 ICntrl=     0 DoSepK=T KAlg= 1 I1Cent= 0 FoldK=F
 LinEq1:  Iter=  8 NonCon=     1 RMS=1.25D-07 Max=5.57D-06
 FoFJK:  IHMeth= 1 ICntrl=     0 DoSepK=T KAlg= 1 I1Cent= 0 FoldK=F
 LinEq1:  Iter=  9 NonCon=     1 RMS=8.83D-08 Max=2.97D-06
 FoFJK:  IHMeth= 1 ICntrl=     0 DoSepK=T KAlg= 1 I1Cent= 0 FoldK=F
 LinEq1:  Iter= 10 NonCon=     1 RMS=2.66D-08 Max=1.59D-06
 FoFJK:  IHMeth= 1 ICntrl=     0 DoSepK=T KAlg= 1 I1Cent= 0 FoldK=F
 LinEq1:  Iter= 11 NonCon=     1 RMS=1.70D-08 Max=1.11D-06
 FoFJK:  IHMeth= 1 ICntrl=     0 DoSepK=T KAlg= 1 I1Cent= 0 FoldK=F
 LinEq1:  Iter= 12 NonCon=     0 RMS=6.07D-09 Max=1.24D-07
 Linear equations converged to 2.120D-08 2.120D-07 after    12 iterations.
 FoFJK:  IHMeth= 1 ICntrl=     0 DoSepK=T KAlg= 1 I1Cent= 0 FoldK=F
 FoFJK:  IHMeth= 1 ICntrl=     0 DoSepK=T KAlg= 1 I1Cent= 0 FoldK=F
 FoFJK:  IHMeth= 1 ICntrl=     0 DoSepK=T KAlg= 1 I1Cent= 0 FoldK=F
 LinEq1:  Iter=  0 NonCon=     1 RMS=2.81D-07 Max=1.16D-05
 FoFJK:  IHMeth= 1 ICntrl=     0 DoSepK=T KAlg= 1 I1Cent= 0 FoldK=F
 LinEq1:  Iter=  1 NonCon=     1 RMS=1.55D-07 Max=6.88D-06
 FoFJK:  IHMeth= 1 ICntrl=     0 DoSepK=T KAlg= 1 I1Cent= 0 FoldK=F
 LinEq1:  Iter=  2 NonCon=     1 RMS=4.04D-08 Max=1.39D-06
 FoFJK:  IHMeth= 1 ICntrl=     0 DoSepK=T KAlg= 1 I1Cent= 0 FoldK=F
 LinEq1:  Iter=  3 NonCon=     1 RMS=2.80D-08 Max=2.47D-06
 FoFJK:  IHMeth= 1 ICntrl=     0 DoSepK=T KAlg= 1 I1Cent= 0 FoldK=F
 LinEq1:  Iter=  4 NonCon=     1 RMS=2.08D-08 Max=1.33D-06
 FoFJK:  IHMeth= 1 ICntrl=     0 DoSepK=T KAlg= 1 I1Cent= 0 FoldK=F
 LinEq1:  Iter=  5 NonCon=     1 RMS=1.43D-08 Max=9.10D-07
 FoFJK:  IHMeth= 1 ICntrl=     0 DoSepK=T KAlg= 1 I1Cent= 0 FoldK=F
 LinEq1:  Iter=  6 NonCon=     1 RMS=8.84D-09 Max=4.51D-07
 FoFJK:  IHMeth= 1 ICntrl=     0 DoSepK=T KAlg= 1 I1Cent= 0 FoldK=F
 LinEq1:  Iter=  7 NonCon=     1 RMS=3.60D-09 Max=1.87D-07
 FoFJK:  IHMeth= 1 ICntrl=     0 DoSepK=T KAlg= 1 I1Cent= 0 FoldK=F
 LinEq1:  Iter=  8 NonCon=     1 RMS=2.26D-09 Max=1.19D-07
 FoFJK:  IHMeth= 1 ICntrl=     0 DoSepK=T KAlg= 1 I1Cent= 0 FoldK=F
 LinEq1:  Iter=  9 NonCon=     1 RMS=1.32D-09 Max=6.34D-08
 FoFJK:  IHMeth= 1 ICntrl=     0 DoSepK=T KAlg= 1 I1Cent= 0 FoldK=F
 LinEq1:  Iter= 10 NonCon=     1 RMS=5.28D-10 Max=1.61D-08
 FoFJK:  IHMeth= 1 ICntrl=     0 DoSepK=T KAlg= 1 I1Cent= 0 FoldK=F
 LinEq1:  Iter= 11 NonCon=     1 RMS=2.86D-10 Max=8.01D-09
 FoFJK:  IHMeth= 1 ICntrl=     0 DoSepK=T KAlg= 1 I1Cent= 0 FoldK=F
 LinEq1:  Iter= 12 NonCon=     0 RMS=1.18D-10 Max=3.10D-09
 Linear equations converged to 4.976D-10 4.976D-09 after    12 iterations.
 FoFJK:  IHMeth= 1 ICntrl=     0 DoSepK=T KAlg= 1 I1Cent= 0 FoldK=F
 SCF Done:  E(RCAM-B3LYP) =  -3065.76930393     a.u. after    9 cycles
            Convg  =    0.2938D-08                    49 Fock formations.
              S**2 =  0.0000                  -V/T =  2.0019
 ExpMin= 2.90D-02 ExpMax= 5.65D+05 ExpMxC= 5.46D+03 IAcc=3 IRadAn=         5 AccDes= 0.00D+00
 HarFok:  IExCor=  205 AccDes= 0.00D+00 IRadAn=         5 IDoV=-2
 ScaDFX=  1.000000  1.000000  1.000000  1.000000
 Range of M.O.s used for correlation:    20   477
 NBasis=   478 NAE=    53 NBE=    53 NFC=    19 NFV=     0
 NROrb=    458 NOA=    34 NOB=    34 NVA=   424 NVB=   424

 **** Warning!!: The largest alpha MO coefficient is  0.17293092D+03

 Would need an additional 33704400000 words for in-memory AO integral storage.
 Orbital symmetries:
       Occupied  (A) (A) (A) (A) (A) (A) (A) (A) (A) (A) (A) (A)
                 (A) (A) (A) (A) (A) (A) (A) (A) (A) (A) (A) (A)
                 (A) (A) (A) (A) (A) (A) (A) (A) (A) (A) (A) (A)
                 (A) (A) (A) (A) (A) (A) (A) (A) (A) (A) (A) (A)
                 (A) (A) (A) (A) (A)
       Virtual   (A) (A) (A) (A) (A) (A) (A) (A) (A) (A) (A) (A)
                 (A) (A) (A) (A) (A) (A) (A) (A) (A) (A) (A) (A)
                 (A) (A) (A) (A) (A) (A) (A) (A) (A) (A) (A) (A)
                 (A) (A) (A) (A) (A) (A) (A) (A) (A) (A) (A) (A)
                 (A) (A) (A) (A) (A) (A) (A) (A) (A) (A) (A) (A)
                 (A) (A) (A) (A) (A) (A) (A) (A) (A) (A) (A) (A)
                 (A) (A) (A) (A) (A) (A) (A) (A) (A) (A) (A) (A)
                 (A) (A) (A) (A) (A) (A) (A) (A) (A) (A) (A) (A)
                 (A) (A) (A) (A) (A) (A) (A) (A) (A) (A) (A) (A)
                 (A) (A) (A) (A) (A) (A) (A) (A) (A) (A) (A) (A)
                 (A) (A) (A) (A) (A) (A) (A) (A) (A) (A) (A) (A)
                 (A) (A) (A) (A) (A) (A) (A) (A) (A) (A) (A) (A)
                 (A) (A) (A) (A) (A) (A) (A) (A) (A) (A) (A) (A)
                 (A) (A) (A) (A) (A) (A) (A) (A) (A) (A) (A) (A)
                 (A) (A) (A) (A) (A) (A) (A) (A) (A) (A) (A) (A)
                 (A) (A) (A) (A) (A) (A) (A) (A) (A) (A) (A) (A)
                 (A) (A) (A) (A) (A) (A) (A) (A) (A) (A) (A) (A)
                 (A) (A) (A) (A) (A) (A) (A) (A) (A) (A) (A) (A)
                 (A) (A) (A) (A) (A) (A) (A) (A) (A) (A) (A) (A)
                 (A) (A) (A) (A) (A) (A) (A) (A) (A) (A) (A) (A)
                 (A) (A) (A) (A) (A) (A) (A) (A) (A) (A) (A) (A)
                 (A) (A) (A) (A) (A) (A) (A) (A) (A) (A) (A) (A)
                 (A) (A) (A) (A) (A) (A) (A) (A) (A) (A) (A) (A)
                 (A) (A) (A) (A) (A) (A) (A) (A) (A) (A) (A) (A)
                 (A) (A) (A) (A) (A) (A) (A) (A) (A) (A) (A) (A)
                 (A) (A) (A) (A) (A) (A) (A) (A) (A) (A) (A) (A)
                 (A) (A) (A) (A) (A) (A) (A) (A) (A) (A) (A) (A)
                 (A) (A) (A) (A) (A) (A) (A) (A) (A) (A) (A) (A)
                 (A) (A) (A) (A) (A) (A) (A) (A) (A) (A) (A) (A)
                 (A) (A) (A) (A) (A) (A) (A) (A) (A) (A) (A) (A)
                 (A) (A) (A) (A) (A) (A) (A) (A) (A) (A) (A) (A)
                 (A) (A) (A) (A) (A) (A) (A) (A) (A) (A) (A) (A)
                 (A) (A) (A) (A) (A) (A) (A) (A) (A) (A) (A) (A)
                 (A) (A) (A) (A) (A) (A) (A) (A) (A) (A) (A) (A)
                 (A) (A) (A) (A) (A) (A) (A) (A) (A) (A) (A) (A)
                 (A) (A) (A) (A)
    60 initial guesses have been made.
 Convergence on wavefunction:    0.001000000000000
 Iteration     1 Dimension    60 NMult    60
 CISAX will form    20 AO SS matrices at one time.
 FoFJK:  IHMeth= 1 ICntrl=     0 DoSepK=T KAlg= 1 I1Cent= 0 FoldK=F
 FoFJK:  IHMeth= 1 ICntrl=     0 DoSepK=T KAlg= 1 I1Cent= 0 FoldK=F
 FoFJK:  IHMeth= 1 ICntrl=     0 DoSepK=T KAlg= 1 I1Cent= 0 FoldK=F
 FoFJK:  IHMeth= 1 ICntrl=     0 DoSepK=T KAlg= 1 I1Cent= 0 FoldK=F
 FoFJK:  IHMeth= 1 ICntrl=     0 DoSepK=T KAlg= 1 I1Cent= 0 FoldK=F
 FoFJK:  IHMeth= 1 ICntrl=     0 DoSepK=T KAlg= 1 I1Cent= 0 FoldK=F
 New state      1 was old state      6
 New state      2 was old state      1
 New state      3 was old state     12
 New state      4 was old state      2
 New state      5 was old state      4
 New state      6 was old state      3
 New state      7 was old state      5
 New state      8 was old state     14
 New state      9 was old state      8
 New state     10 was old state      9
 New state     12 was old state      7
 New state     14 was old state     15
 No map to state     15
 Iteration     2 Dimension    90 NMult    90
 FoFJK:  IHMeth= 1 ICntrl=     0 DoSepK=T KAlg= 1 I1Cent= 0 FoldK=F
 FoFJK:  IHMeth= 1 ICntrl=     0 DoSepK=T KAlg= 1 I1Cent= 0 FoldK=F
 FoFJK:  IHMeth= 1 ICntrl=     0 DoSepK=T KAlg= 1 I1Cent= 0 FoldK=F
 FoFJK:  IHMeth= 1 ICntrl=     0 DoSepK=T KAlg= 1 I1Cent= 0 FoldK=F
 New state      8 was old state     10
 New state      9 was old state      8
 New state     10 was old state      9
 New state     11 was old state     14
 New state     12 was old state     11
 New state     13 was old state     12
 New state     14 was old state     15
 New state     15 was old state     13
 Iteration     3 Dimension   120 NMult   120
 FoFJK:  IHMeth= 1 ICntrl=     0 DoSepK=T KAlg= 1 I1Cent= 0 FoldK=F
 FoFJK:  IHMeth= 1 ICntrl=     0 DoSepK=T KAlg= 1 I1Cent= 0 FoldK=F
 FoFJK:  IHMeth= 1 ICntrl=     0 DoSepK=T KAlg= 1 I1Cent= 0 FoldK=F
 FoFJK:  IHMeth= 1 ICntrl=     0 DoSepK=T KAlg= 1 I1Cent= 0 FoldK=F
 Iteration     4 Dimension   150 NMult   150
 FoFJK:  IHMeth= 1 ICntrl=     0 DoSepK=T KAlg= 1 I1Cent= 0 FoldK=F
 FoFJK:  IHMeth= 1 ICntrl=     0 DoSepK=T KAlg= 1 I1Cent= 0 FoldK=F
 FoFJK:  IHMeth= 1 ICntrl=     0 DoSepK=T KAlg= 1 I1Cent= 0 FoldK=F
 FoFJK:  IHMeth= 1 ICntrl=     0 DoSepK=T KAlg= 1 I1Cent= 0 FoldK=F
 No map to state     12
 New state     13 was old state     12
 New state     14 was old state     13
 New state     15 was old state     14
 Iteration     5 Dimension   176 NMult   176
 FoFJK:  IHMeth= 1 ICntrl=     0 DoSepK=T KAlg= 1 I1Cent= 0 FoldK=F
 FoFJK:  IHMeth= 1 ICntrl=     0 DoSepK=T KAlg= 1 I1Cent= 0 FoldK=F
 FoFJK:  IHMeth= 1 ICntrl=     0 DoSepK=T KAlg= 1 I1Cent= 0 FoldK=F
 FoFJK:  IHMeth= 1 ICntrl=     0 DoSepK=T KAlg= 1 I1Cent= 0 FoldK=F
 New state     10 was old state     11
 New state     11 was old state     10
 Iteration     6 Dimension   194 NMult   194
 FoFJK:  IHMeth= 1 ICntrl=     0 DoSepK=T KAlg= 1 I1Cent= 0 FoldK=F
 FoFJK:  IHMeth= 1 ICntrl=     0 DoSepK=T KAlg= 1 I1Cent= 0 FoldK=F
 Iteration     7 Dimension   200 NMult   200
 FoFJK:  IHMeth= 1 ICntrl=     0 DoSepK=T KAlg= 1 I1Cent= 0 FoldK=F
 FoFJK:  IHMeth= 1 ICntrl=     0 DoSepK=T KAlg= 1 I1Cent= 0 FoldK=F
 Iteration     8 Dimension   202 NMult   202
 FoFJK:  IHMeth= 1 ICntrl=     0 DoSepK=T KAlg= 1 I1Cent= 0 FoldK=F
 FoFJK:  IHMeth= 1 ICntrl=     0 DoSepK=T KAlg= 1 I1Cent= 0 FoldK=F
 ***********************************************************************
 Excited states from <AA,BB:AA,BB> singles matrix:
 ***********************************************************************
 
 Ground to excited state transition electric dipole moments (Au):
       state          X           Y           Z        Dip. S.      Osc.
         1         0.0052      0.0025     -0.0007      0.0000      0.0000
         2         1.5456      0.7860     -0.0120      3.0067      0.3236
         3         0.0023      0.0012      0.0614      0.0038      0.0004
         4        -0.1865     -0.4467      0.0049      0.2343      0.0272
         5        -0.0236      0.0312     -0.0655      0.0058      0.0008
         6        -0.6640      0.6573     -0.0022      0.8730      0.1163
         7         0.0438     -0.0361     -0.2178      0.0506      0.0071
         8         0.9467      0.0796      0.0308      0.9034      0.1371
         9        -0.0106      0.0041      0.0857      0.0075      0.0012
        10        -0.5708      0.7906      0.0096      0.9510      0.1499
        11        -0.2861     -0.1602      0.1775      0.1390      0.0223
        12        -1.0072     -0.4669     -0.0822      1.2391      0.2013
        13         0.1841      0.0950     -0.2657      0.1135      0.0187
        14         0.0059      0.0216     -0.0350      0.0017      0.0003
        15        -0.2817     -0.1193      0.0131      0.0938      0.0156
 Ground to excited state transition velocity dipole moments (Au):
       state          X           Y           Z        Dip. S.      Osc.
         1        -0.0008     -0.0004      0.0001      0.0000      0.0000
         2        -0.2492     -0.1267      0.0018      0.0781      0.3227
         3        -0.0004     -0.0002     -0.0106      0.0001      0.0004
         4         0.0324      0.0778     -0.0009      0.0071      0.0272
         5         0.0047     -0.0060      0.0145      0.0003      0.0009
         6         0.1327     -0.1311      0.0005      0.0348      0.1161
         7        -0.0090      0.0078      0.0492      0.0026      0.0081
         8        -0.2155     -0.0179     -0.0072      0.0468      0.1371
         9         0.0024     -0.0011     -0.0216      0.0005      0.0014
        10         0.1345     -0.1861     -0.0022      0.0527      0.1486
        11         0.0688      0.0384     -0.0420      0.0080      0.0221
        12         0.2448      0.1129      0.0200      0.0731      0.2000
        13        -0.0451     -0.0230      0.0678      0.0072      0.0193
        14        -0.0014     -0.0053      0.0082      0.0001      0.0003
        15         0.0706      0.0298     -0.0033      0.0059      0.0156
 Ground to excited state transition magnetic dipole moments (Au):
       state          X           Y           Z
         1         0.5100      0.2863      0.0011
         2         0.0028     -0.0084      0.4275
         3         0.5492     -1.0063     -0.0024
         4        -0.0087      0.0030     -0.6941
         5         0.0946      0.0443      0.0146
         6         0.0082     -0.0173      0.0555
         7         0.1112     -0.5246      0.0259
         8        -0.0038      0.0477      0.6055
         9        -0.0261      0.3049      0.0202
        10         0.0057      0.0051      1.3274
        11         0.1605      0.1507     -0.3179
        12         0.0012     -0.0435     -1.0637
        13         0.2876     -0.2771      0.1974
        14        -0.0052      0.0596     -0.0541
        15        -0.0105      0.0055     -0.5556
 <0|del|b> * <b|rxdel|0> + <0|del|b> * <b|delr+rdel|0>
 Rotatory Strengths (R) in cgs (10**-40 erg-esu-cm/Gauss)
       state          XX          YY          ZZ    R(velocity)
         1        -0.2619     -0.9889     -1.1265     -0.7924
 Total R(velocity) tensor for State=          1
                 1             2             3 
      1  -0.261873D+00  0.553861D+00  0.249005D-03
      2   0.467605D+00 -0.988908D+00 -0.174528D-03
      3  -0.115579D+00 -0.651025D-01 -0.112653D+01
 R(velocity) tensor in inp. orien. for State=          1
                 1             2             3 
      1  -0.261873D+00  0.553861D+00  0.249005D-03
      2   0.467605D+00 -0.988908D+00 -0.174528D-03
      3  -0.115579D+00 -0.651025D-01 -0.112653D+01
         2         6.2736     -4.8931      3.6331      1.6712
 Total R(velocity) tensor for State=          2
                 1             2             3 
      1   0.627363D+01 -0.125448D+02 -0.140935D+02
      2   0.233568D+01 -0.489309D+01 -0.207661D+02
      3  -0.816614D+01  0.161181D+02  0.363310D+01
 R(velocity) tensor in inp. orien. for State=          2
                 1             2             3 
      1   0.627363D+01 -0.125448D+02 -0.140935D+02
      2   0.233568D+01 -0.489309D+01 -0.207661D+02
      3  -0.816614D+01  0.161181D+02  0.363310D+01
         3         0.4991     -0.4457     -0.0697     -0.0054
 Total R(velocity) tensor for State=          3
                 1             2             3 
      1   0.499064D+00 -0.874308D+00 -0.322342D-02
      2   0.239484D+00 -0.445722D+00 -0.108704D-02
      3   0.110426D+02 -0.194388D+02 -0.696856D-01
 R(velocity) tensor in inp. orien. for State=          3
                 1             2             3 
      1   0.499064D+00 -0.874308D+00 -0.322342D-02
      2   0.239484D+00 -0.445722D+00 -0.108704D-02
      3   0.110426D+02 -0.194388D+02 -0.696856D-01
         4         2.5867      0.7384     -0.9349      0.7967
 Total R(velocity) tensor for State=          4
                 1             2             3 
      1   0.258674D+01 -0.133255D+01 -0.219030D+02
      2   0.134602D+01  0.738401D+00  0.110862D+03
      3   0.150857D+01 -0.638491D+00 -0.934939D+00
 R(velocity) tensor in inp. orien. for State=          4
                 1             2             3 
      1   0.258674D+01 -0.133255D+01 -0.219030D+02
      2   0.134602D+01  0.738401D+00  0.110862D+03
      3   0.150857D+01 -0.638491D+00 -0.934939D+00
         5         1.0438      1.1528     -0.8114      0.4617
 Total R(velocity) tensor for State=          5
                 1             2             3 
      1   0.104379D+01  0.869504D+00  0.260808D-01
      2  -0.119938D+00  0.115280D+01  0.519789D+00
      3  -0.375393D+01 -0.484657D+01 -0.811363D+00
 R(velocity) tensor in inp. orien. for State=          5
                 1             2             3 
      1   0.104379D+01  0.869504D+00  0.260808D-01
      2  -0.119938D+00  0.115280D+01  0.519789D+00
      3  -0.375393D+01 -0.484657D+01 -0.811363D+00
         6         5.8759      2.9451      3.1340      3.9850
 Total R(velocity) tensor for State=          6
                 1             2             3 
      1   0.587587D+01  0.566103D+01 -0.704696D+02
      2   0.237446D+01  0.294507D+01  0.132995D+03
      3   0.232113D+01  0.236236D+01  0.313397D+01
 R(velocity) tensor in inp. orien. for State=          6
                 1             2             3 
      1   0.587587D+01  0.566103D+01 -0.704696D+02
      2   0.237446D+01  0.294507D+01  0.132995D+03
      3   0.232113D+01  0.236236D+01  0.313397D+01
         7        -3.6874     -7.8434     -1.2247     -4.2518
 Total R(velocity) tensor for State=          7
                 1             2             3 
      1  -0.368737D+01 -0.177380D+02  0.213567D+01
      2  -0.721879D+00 -0.784339D+01  0.110961D+01
      3   0.310368D+01  0.113090D+02 -0.122470D+01
 R(velocity) tensor in inp. orien. for State=          7
                 1             2             3 
      1  -0.368737D+01 -0.177380D+02  0.213567D+01
      2  -0.721879D+00 -0.784339D+01  0.110961D+01
      3   0.310368D+01  0.113090D+02 -0.122470D+01
         8       -17.7594      7.2637     -3.1541     -4.5499
 Total R(velocity) tensor for State=          8
                 1             2             3 
      1  -0.177594D+02  0.378108D+02  0.437715D+03
      2   0.128968D+01  0.726371D+01 -0.566101D+02
      3  -0.195983D+01  0.249220D+02 -0.315412D+01
 R(velocity) tensor in inp. orien. for State=          8
                 1             2             3 
      1  -0.177594D+02  0.378108D+02  0.437715D+03
      2   0.128968D+01  0.726371D+01 -0.566101D+02
      3  -0.195983D+01  0.249220D+02 -0.315412D+01
         9        -2.2644     -0.2859      0.0482     -0.8340
 Total R(velocity) tensor for State=          9
                 1             2             3 
      1  -0.226445D+01 -0.146989D+01 -0.183677D+00
      2  -0.853822D+00 -0.285923D+00 -0.824683D-01
      3   0.499214D+01  0.104843D+02  0.482289D-01
 R(velocity) tensor in inp. orien. for State=          9
                 1             2             3 
      1  -0.226445D+01 -0.146989D+01 -0.183677D+00
      2  -0.853822D+00 -0.285923D+00 -0.824683D-01
      3   0.499214D+01  0.104843D+02  0.482289D-01
        10       -11.5789      1.3483      0.8352     -3.1318
 Total R(velocity) tensor for State=         10
                 1             2             3 
      1  -0.115789D+02 -0.718482D+01 -0.983526D+02
      2   0.563298D+00  0.134834D+01 -0.783389D+02
      3   0.160310D+01  0.114832D+01  0.835232D+00
 R(velocity) tensor in inp. orien. for State=         10
                 1             2             3 
      1  -0.115789D+02 -0.718482D+01 -0.983526D+02
      2   0.563298D+00  0.134834D+01 -0.783389D+02
      3   0.160310D+01  0.114832D+01  0.835232D+00
        11        29.6332     61.7446     -2.7416     29.5454
 Total R(velocity) tensor for State=         11
                 1             2             3 
      1   0.296332D+02 -0.253035D+02  0.254089D+02
      2  -0.293765D+02  0.617446D+02  0.825709D+01
      3  -0.216104D+01  0.871292D+00 -0.274157D+01
 R(velocity) tensor in inp. orien. for State=         11
                 1             2             3 
      1   0.296332D+02 -0.253035D+02  0.254089D+02
      2  -0.293765D+02  0.617446D+02  0.825709D+01
      3  -0.216104D+01  0.871292D+00 -0.274157D+01
        12       -29.5008    -61.5652     15.7995    -25.0889
 Total R(velocity) tensor for State=         12
                 1             2             3 
      1  -0.295008D+02  0.332192D+02  0.173246D+03
      2   0.231185D+02 -0.615652D+02  0.644925D+02
      3  -0.417926D+01  0.625745D+01  0.157995D+02
 R(velocity) tensor in inp. orien. for State=         12
                 1             2             3 
      1  -0.295008D+02  0.332192D+02  0.173246D+03
      2   0.231185D+02 -0.615652D+02  0.644925D+02
      3  -0.417926D+01  0.625745D+01  0.157995D+02
        13        26.5578      0.6037     -7.7662      6.4651
 Total R(velocity) tensor for State=         13
                 1             2             3 
      1   0.265578D+02 -0.390604D+02  0.442667D+01
      2   0.292020D+01  0.603717D+00  0.215037D+01
      3  -0.323982D+01 -0.165129D+02 -0.776619D+01
 R(velocity) tensor in inp. orien. for State=         13
                 1             2             3 
      1   0.265578D+02 -0.390604D+02  0.442667D+01
      2   0.292020D+01  0.603717D+00  0.215037D+01
      3  -0.323982D+01 -0.165129D+02 -0.776619D+01
        14        -1.1603     -0.4100     -0.5598     -0.7100
 Total R(velocity) tensor for State=         14
                 1             2             3 
      1  -0.116028D+01  0.171884D+00 -0.925667D-01
      2  -0.616919D+00 -0.409967D+00 -0.371385D+00
      3  -0.444827D+00 -0.750097D+00 -0.559837D+00
 R(velocity) tensor in inp. orien. for State=         14
                 1             2             3 
      1  -0.116028D+01  0.171884D+00 -0.925667D-01
      2  -0.616919D+00 -0.409967D+00 -0.371385D+00
      3  -0.444827D+00 -0.750097D+00 -0.559837D+00
        15         2.7085      1.3728     -0.5521      1.1764
 Total R(velocity) tensor for State=         15
                 1             2             3 
      1   0.270852D+01 -0.942602D+00  0.494715D+02
      2   0.108346D+01  0.137276D+01  0.356023D+02
      3  -0.470370D+00  0.105331D+01 -0.552081D+00
 R(velocity) tensor in inp. orien. for State=         15
                 1             2             3 
      1   0.270852D+01 -0.942602D+00  0.494715D+02
      2   0.108346D+01  0.137276D+01  0.356023D+02
      3  -0.470370D+00  0.105331D+01 -0.552081D+00
 1/2[<0|r|b>*<b|rxdel|0> + (<0|rxdel|b>*<b|r|0>)*]
 Rotatory Strengths (R) in cgs (10**-40 erg-esu-cm/Gauss)
       state          XX          YY          ZZ     R(length)     R(au)
         1        -1.8824     -0.5119      0.0005     -0.7979     -0.0017
         2        -3.0614      4.6764      3.6131      1.7427      0.0037
         3        -0.9105      0.8837      0.1042      0.0258      0.0001
         4        -1.1415      0.9613      2.4074      0.7424      0.0016
         5         1.5791     -0.9783      0.6761      0.4256      0.0009
         6         3.8372      8.0290      0.0880      3.9847      0.0085
         7        -3.4403    -13.3773      3.9836     -4.2780     -0.0091
         8         2.5383     -2.6832    -13.1786     -4.4412     -0.0094
         9        -0.1958     -0.8870     -1.2248     -0.7692     -0.0016
        10         2.3019     -2.8272     -8.9815     -3.1689     -0.0067
        11        32.4642     17.0694     39.9027     29.8121      0.0632
        12         0.8294    -14.3471    -61.8561    -25.1246     -0.0533
        13       -37.4499     18.6084     37.0810      6.0798      0.0129
        14         0.0216     -0.9077     -1.3408     -0.7423     -0.0016
        15        -2.1002      0.4599      5.1286      1.1628      0.0025
  1/2[<0|del|b>*<b|r|0> + (<0|r|b>*<b|del|0>)*] (Au)
       state          X           Y           Z        Dip. S.   Osc.(frdel)
         1         0.0000      0.0000      0.0000      0.0000      0.0000
         2        -0.3851     -0.0995      0.0000      0.4847      0.3231
         3         0.0000      0.0000     -0.0007      0.0007      0.0004
         4        -0.0060     -0.0347      0.0000      0.0408      0.0272
         5        -0.0001     -0.0002     -0.0009      0.0012      0.0008
         6        -0.0881     -0.0862      0.0000      0.1743      0.1162
         7        -0.0004     -0.0003     -0.0107      0.0114      0.0076
         8        -0.2040     -0.0014     -0.0002      0.2057      0.1371
         9         0.0000      0.0000     -0.0019      0.0019      0.0013
        10        -0.0767     -0.1471      0.0000      0.2239      0.1493
        11        -0.0197     -0.0061     -0.0075      0.0333      0.0222
        12        -0.2466     -0.0527     -0.0016      0.3010      0.2006
        13        -0.0083     -0.0022     -0.0180      0.0285      0.0190
        14         0.0000     -0.0001     -0.0003      0.0004      0.0003
        15        -0.0199     -0.0036      0.0000      0.0235      0.0156
 Ground to excited state transition densities written to RWF  633

 Excitation energies and oscillator strengths:
 
 Excited State   1:      Singlet-A      4.1028 eV  302.19 nm  f=0.0000  <S**2>=0.000
      51 -> 54         0.66922
      51 -> 60         0.19047
 This state for optimization and/or second-order correction.
 Copying the excited state density for this state as the 1-particle RhoCI density.
 
 Excited State   2:      Singlet-A      4.3925 eV  282.26 nm  f=0.3236  <S**2>=0.000
      53 -> 54         0.68204
 
 Excited State   3:      Singlet-A      4.6409 eV  267.15 nm  f=0.0004  <S**2>=0.000
      48 -> 54         0.57818
      48 -> 60         0.16283
      50 -> 54         0.34646
 
 Excited State   4:      Singlet-A      4.7406 eV  261.54 nm  f=0.0272  <S**2>=0.000
      52 -> 54         0.43310
      52 -> 60        -0.10020
      53 -> 55         0.52817
 
 Excited State   5:      Singlet-A      5.3615 eV  231.25 nm  f=0.0008  <S**2>=0.000
      52 -> 56         0.18396
      52 -> 57        -0.11663
      52 -> 59        -0.11095
      53 -> 56         0.48138
      53 -> 57        -0.30687
      53 -> 58         0.10919
      53 -> 59        -0.21071
      53 -> 63         0.10649
 
 Excited State   6:      Singlet-A      5.4368 eV  228.04 nm  f=0.1163  <S**2>=0.000
      52 -> 54         0.54314
      53 -> 55        -0.43086
 
 Excited State   7:      Singlet-A      5.7455 eV  215.79 nm  f=0.0071  <S**2>=0.000
      53 -> 56         0.35383
      53 -> 57         0.57954
 
 Excited State   8:      Singlet-A      6.1956 eV  200.12 nm  f=0.1371  <S**2>=0.000
      52 -> 55         0.52929
      53 -> 59         0.10438
      53 -> 60         0.41841
 
 Excited State   9:      Singlet-A      6.3468 eV  195.35 nm  f=0.0012  <S**2>=0.000
      52 -> 56         0.39959
      52 -> 57        -0.34397
      52 -> 58         0.11258
      52 -> 59        -0.18072
      52 -> 63         0.10328
      53 -> 56        -0.24554
      53 -> 57         0.15898
      53 -> 59        -0.12256
 
 Excited State  10:      Singlet-A      6.4357 eV  192.65 nm  f=0.1499  <S**2>=0.000
      49 -> 54         0.68152
 
 Excited State  11:      Singlet-A      6.5530 eV  189.20 nm  f=0.0223  <S**2>=0.000
      52 -> 55        -0.12740
      52 -> 56        -0.17600
      52 -> 57        -0.10842
      53 -> 58         0.50838
      53 -> 59        -0.13022
      53 -> 60         0.13086
      53 -> 61        -0.12921
      53 -> 62        -0.26402
      53 -> 64         0.15079
 
 Excited State  12:      Singlet-A      6.6313 eV  186.97 nm  f=0.2013  <S**2>=0.000
      46 -> 54        -0.13376
      47 -> 54        -0.15050
      52 -> 55        -0.40076
      53 -> 59         0.26975
      53 -> 60         0.41344
 
 Excited State  13:      Singlet-A      6.7132 eV  184.69 nm  f=0.0187  <S**2>=0.000
      52 -> 56         0.22354
      53 -> 58         0.21578
      53 -> 59         0.49194
      53 -> 60        -0.24016
      53 -> 61        -0.10041
      53 -> 62        -0.12837
      53 -> 64         0.10528
 
 Excited State  14:      Singlet-A      6.7905 eV  182.59 nm  f=0.0003  <S**2>=0.000
      48 -> 54        -0.32654
      50 -> 54         0.56915
      50 -> 55         0.18078
      50 -> 60        -0.10598
 
 Excited State  15:      Singlet-A      6.8110 eV  182.03 nm  f=0.0156  <S**2>=0.000
      48 -> 56        -0.21608
      48 -> 57         0.13195
      48 -> 59         0.11521
      50 -> 56         0.46245
      50 -> 57        -0.28373
      50 -> 59        -0.23832
 SavETr:  write IOETrn=   770 NScale= 10 NData=  16 NLR=1 LETran=     280.

 **********************************************************************

            Population analysis using the SCF density.

 **********************************************************************

 Orbital symmetries:
       Occupied  (A) (A) (A) (A) (A) (A) (A) (A) (A) (A) (A) (A)
                 (A) (A) (A) (A) (A) (A) (A) (A) (A) (A) (A) (A)
                 (A) (A) (A) (A) (A) (A) (A) (A) (A) (A) (A) (A)
                 (A) (A) (A) (A) (A) (A) (A) (A) (A) (A) (A) (A)
                 (A) (A) (A) (A) (A)
       Virtual   (A) (A) (A) (A) (A) (A) (A) (A) (A) (A) (A) (A)
                 (A) (A) (A) (A) (A) (A) (A) (A) (A) (A) (A) (A)
                 (A) (A) (A) (A) (A) (A) (A) (A) (A) (A) (A) (A)
                 (A) (A) (A) (A) (A) (A) (A) (A) (A) (A) (A) (A)
                 (A) (A) (A) (A) (A) (A) (A) (A) (A) (A) (A) (A)
                 (A) (A) (A) (A) (A) (A) (A) (A) (A) (A) (A) (A)
                 (A) (A) (A) (A) (A) (A) (A) (A) (A) (A) (A) (A)
                 (A) (A) (A) (A) (A) (A) (A) (A) (A) (A) (A) (A)
                 (A) (A) (A) (A) (A) (A) (A) (A) (A) (A) (A) (A)
                 (A) (A) (A) (A) (A) (A) (A) (A) (A) (A) (A) (A)
                 (A) (A) (A) (A) (A) (A) (A) (A) (A) (A) (A) (A)
                 (A) (A) (A) (A) (A) (A) (A) (A) (A) (A) (A) (A)
                 (A) (A) (A) (A) (A) (A) (A) (A) (A) (A) (A) (A)
                 (A) (A) (A) (A) (A) (A) (A) (A) (A) (A) (A) (A)
                 (A) (A) (A) (A) (A) (A) (A) (A) (A) (A) (A) (A)
                 (A) (A) (A) (A) (A) (A) (A) (A) (A) (A) (A) (A)
                 (A) (A) (A) (A) (A) (A) (A) (A) (A) (A) (A) (A)
                 (A) (A) (A) (A) (A) (A) (A) (A) (A) (A) (A) (A)
                 (A) (A) (A) (A) (A) (A) (A) (A) (A) (A) (A) (A)
                 (A) (A) (A) (A) (A) (A) (A) (A) (A) (A) (A) (A)
                 (A) (A) (A) (A) (A) (A) (A) (A) (A) (A) (A) (A)
                 (A) (A) (A) (A) (A) (A) (A) (A) (A) (A) (A) (A)
                 (A) (A) (A) (A) (A) (A) (A) (A) (A) (A) (A) (A)
                 (A) (A) (A) (A) (A) (A) (A) (A) (A) (A) (A) (A)
                 (A) (A) (A) (A) (A) (A) (A) (A) (A) (A) (A) (A)
                 (A) (A) (A) (A) (A) (A) (A) (A) (A) (A) (A) (A)
                 (A) (A) (A) (A) (A) (A) (A) (A) (A) (A) (A) (A)
                 (A) (A) (A) (A) (A) (A) (A) (A) (A) (A) (A) (A)
                 (A) (A) (A) (A) (A) (A) (A) (A) (A) (A) (A) (A)
                 (A) (A) (A) (A) (A) (A) (A) (A) (A) (A) (A) (A)
                 (A) (A) (A) (A) (A) (A) (A) (A) (A) (A) (A) (A)
                 (A) (A) (A) (A) (A) (A) (A) (A) (A) (A) (A) (A)
                 (A) (A) (A) (A) (A) (A) (A) (A) (A) (A) (A) (A)
                 (A) (A) (A) (A) (A) (A) (A) (A) (A) (A) (A) (A)
                 (A) (A) (A) (A) (A) (A) (A) (A) (A) (A) (A) (A)
                 (A) (A) (A) (A)
 The electronic state is 1-A.
 Alpha  occ. eigenvalues -- -482.94871 -62.58975 -56.40798 -56.40431 -56.40428
 Alpha  occ. eigenvalues --  -19.23175 -19.23169 -14.63415 -14.43208 -10.33823
 Alpha  occ. eigenvalues --  -10.32491 -10.30973 -10.28975 -10.28481 -10.27774
 Alpha  occ. eigenvalues --   -8.79103  -6.62245  -6.61099  -6.61089  -2.73888
 Alpha  occ. eigenvalues --   -2.73551  -2.73543  -2.72630  -2.72629  -1.32466
 Alpha  occ. eigenvalues --   -1.14463  -1.05398  -0.98297  -0.92441  -0.88419
 Alpha  occ. eigenvalues --   -0.84074  -0.78434  -0.72921  -0.67814  -0.64496
 Alpha  occ. eigenvalues --   -0.63567  -0.62312  -0.62134  -0.58823  -0.54597
 Alpha  occ. eigenvalues --   -0.54009  -0.51582  -0.51165  -0.50288  -0.44233
 Alpha  occ. eigenvalues --   -0.42402  -0.40648  -0.38774  -0.38191  -0.37705
 Alpha  occ. eigenvalues --   -0.36799  -0.33397  -0.29622
 Alpha virt. eigenvalues --   -0.04609  -0.00119   0.00986   0.01613   0.03562
 Alpha virt. eigenvalues --    0.04370   0.04568   0.05291   0.05508   0.05740
 Alpha virt. eigenvalues --    0.06958   0.08929   0.09340   0.10340   0.10519
 Alpha virt. eigenvalues --    0.11726   0.12172   0.12767   0.13795   0.14082
 Alpha virt. eigenvalues --    0.15067   0.15134   0.16449   0.16941   0.18029
 Alpha virt. eigenvalues --    0.18095   0.18585   0.19671   0.19813   0.20011
 Alpha virt. eigenvalues --    0.20938   0.21447   0.21752   0.22203   0.23445
 Alpha virt. eigenvalues --    0.23654   0.23882   0.24351   0.25773   0.25898
 Alpha virt. eigenvalues --    0.26247   0.26558   0.27250   0.27949   0.28332
 Alpha virt. eigenvalues --    0.28608   0.29254   0.29859   0.30607   0.30645
 Alpha virt. eigenvalues --    0.31323   0.32073   0.32321   0.32554   0.32882
 Alpha virt. eigenvalues --    0.35189   0.35620   0.35850   0.36169   0.36390
 Alpha virt. eigenvalues --    0.36809   0.37619   0.38418   0.38516   0.38851
 Alpha virt. eigenvalues --    0.39184   0.40753   0.41872   0.42562   0.42693
 Alpha virt. eigenvalues --    0.42912   0.43701   0.44144   0.44412   0.44702
 Alpha virt. eigenvalues --    0.45608   0.46105   0.47123   0.47910   0.48112
 Alpha virt. eigenvalues --    0.48729   0.49026   0.50023   0.50574   0.50911
 Alpha virt. eigenvalues --    0.51073   0.51703   0.52441   0.52854   0.54482
 Alpha virt. eigenvalues --    0.54792   0.55329   0.56269   0.57076   0.57892
 Alpha virt. eigenvalues --    0.58401   0.58637   0.59557   0.60137   0.60413
 Alpha virt. eigenvalues --    0.60888   0.61897   0.62242   0.62722   0.63609
 Alpha virt. eigenvalues --    0.64980   0.65346   0.66425   0.66440   0.66806
 Alpha virt. eigenvalues --    0.67564   0.67682   0.67849   0.68543   0.69441
 Alpha virt. eigenvalues --    0.69761   0.70946   0.71614   0.72224   0.72831
 Alpha virt. eigenvalues --    0.73805   0.74643   0.75218   0.75400   0.76016
 Alpha virt. eigenvalues --    0.76707   0.77592   0.78168   0.79581   0.80024
 Alpha virt. eigenvalues --    0.80419   0.80802   0.82014   0.82254   0.82568
 Alpha virt. eigenvalues --    0.83493   0.83940   0.84937   0.85389   0.86500
 Alpha virt. eigenvalues --    0.87615   0.88539   0.90524   0.90875   0.92608
 Alpha virt. eigenvalues --    0.94119   0.95228   0.95949   0.96712   0.98223
 Alpha virt. eigenvalues --    0.99220   1.00032   1.01078   1.02369   1.02692
 Alpha virt. eigenvalues --    1.03418   1.04086   1.04510   1.05465   1.06249
 Alpha virt. eigenvalues --    1.09137   1.10789   1.12659   1.14695   1.16182
 Alpha virt. eigenvalues --    1.18295   1.20080   1.20871   1.21807   1.23126
 Alpha virt. eigenvalues --    1.27698   1.28786   1.30294   1.30662   1.32014
 Alpha virt. eigenvalues --    1.34180   1.35909   1.36202   1.38918   1.40135
 Alpha virt. eigenvalues --    1.41635   1.43466   1.44034   1.45742   1.46171
 Alpha virt. eigenvalues --    1.47374   1.50998   1.52026   1.52163   1.54258
 Alpha virt. eigenvalues --    1.55838   1.56285   1.57602   1.59272   1.59765
 Alpha virt. eigenvalues --    1.61865   1.62612   1.64250   1.66330   1.67444
 Alpha virt. eigenvalues --    1.68202   1.68764   1.70273   1.70806   1.72790
 Alpha virt. eigenvalues --    1.74661   1.76886   1.78298   1.79152   1.79441
 Alpha virt. eigenvalues --    1.80432   1.81600   1.84211   1.84812   1.87733
 Alpha virt. eigenvalues --    1.88497   1.90232   1.90744   1.91047   1.93829
 Alpha virt. eigenvalues --    1.94964   1.95652   1.96238   1.97399   1.98343
 Alpha virt. eigenvalues --    1.99395   2.00230   2.00338   2.01634   2.03709
 Alpha virt. eigenvalues --    2.07746   2.10366   2.10827   2.11768   2.13152
 Alpha virt. eigenvalues --    2.16627   2.19455   2.20743   2.24980   2.25495
 Alpha virt. eigenvalues --    2.28547   2.29845   2.33151   2.33746   2.34617
 Alpha virt. eigenvalues --    2.35066   2.38834   2.40166   2.41676   2.43582
 Alpha virt. eigenvalues --    2.43919   2.47681   2.51511   2.54211   2.55275
 Alpha virt. eigenvalues --    2.58186   2.59612   2.61959   2.63891   2.67116
 Alpha virt. eigenvalues --    2.68132   2.70903   2.71838   2.72141   2.75320
 Alpha virt. eigenvalues --    2.81674   2.83622   2.85266   2.85584   2.87357
 Alpha virt. eigenvalues --    2.87576   2.87927   2.88998   2.92032   2.92809
 Alpha virt. eigenvalues --    2.94331   2.95055   2.98238   3.00828   3.01012
 Alpha virt. eigenvalues --    3.04087   3.06083   3.07899   3.11738   3.12141
 Alpha virt. eigenvalues --    3.12628   3.14104   3.15306   3.17088   3.17746
 Alpha virt. eigenvalues --    3.21416   3.23191   3.25709   3.28960   3.30897
 Alpha virt. eigenvalues --    3.31657   3.34314   3.35020   3.36726   3.38090
 Alpha virt. eigenvalues --    3.39705   3.40429   3.45013   3.45806   3.46476
 Alpha virt. eigenvalues --    3.46815   3.48733   3.49983   3.50447   3.52407
 Alpha virt. eigenvalues --    3.54093   3.54857   3.57670   3.58228   3.59698
 Alpha virt. eigenvalues --    3.60962   3.61872   3.64174   3.65985   3.70356
 Alpha virt. eigenvalues --    3.72144   3.73009   3.76207   3.79172   3.80847
 Alpha virt. eigenvalues --    3.81904   3.90238   3.94229   3.95550   3.97613
 Alpha virt. eigenvalues --    4.03315   4.07847   4.10462   4.12454   4.15991
 Alpha virt. eigenvalues --    4.17722   4.20507   4.20972   4.23127   4.24681
 Alpha virt. eigenvalues --    4.26640   4.27982   4.30870   4.32209   4.32563
 Alpha virt. eigenvalues --    4.34314   4.34630   4.36781   4.37547   4.41527
 Alpha virt. eigenvalues --    4.46018   4.52432   4.52775   4.57533   4.62872
 Alpha virt. eigenvalues --    4.66251   4.73452   4.74949   4.75344   4.79054
 Alpha virt. eigenvalues --    4.80972   4.82050   4.83611   4.88243   4.89042
 Alpha virt. eigenvalues --    4.92382   4.93287   4.95785   4.96353   4.99737
 Alpha virt. eigenvalues --    5.04020   5.09523   5.12371   5.15269   5.20437
 Alpha virt. eigenvalues --    5.20823   5.23654   5.24611   5.26963   5.31022
 Alpha virt. eigenvalues --    5.33742   5.40785   5.41476   5.44283   5.45557
 Alpha virt. eigenvalues --    5.51407   5.54508   5.55844   5.64382   5.69516
 Alpha virt. eigenvalues --    5.72081   5.73829   5.74711   5.80155   5.97081
 Alpha virt. eigenvalues --    6.04384   6.11602   6.17738   6.45066   6.46217
 Alpha virt. eigenvalues --    6.53239   6.59928   6.61532   6.63862   6.96083
 Alpha virt. eigenvalues --    6.96137   6.99371   7.13735   7.32579   7.46855
 Alpha virt. eigenvalues --    7.58113   7.79277   7.82428   8.13830  22.67468
 Alpha virt. eigenvalues --   22.91504  22.99803  23.04569  23.19462  23.50723
 Alpha virt. eigenvalues --   32.47248  32.87408  44.47685  44.66213
          Condensed to atoms (all electrons):
              1          2          3          4          5          6
     1  C    9.228009  -0.507261  -0.718534   0.019582  -1.963093   0.134994
     2  C   -0.507261   6.351476   0.493549  -0.244928   0.329431  -0.294901
     3  C   -0.718534   0.493549   6.568431   0.204911  -0.136819  -0.020484
     4  C    0.019582  -0.244928   0.204911   7.137542  -0.327300  -0.601018
     5  C   -1.963093   0.329431  -0.136819  -0.327300   9.096873  -1.132210
     6  C    0.134994  -0.294901  -0.020484  -0.601018  -1.132210   7.306944
     7  H    0.449616  -0.105996  -0.004336   0.007839  -0.033519  -0.171395
     8  H    0.034939  -0.058317   0.282912  -0.062780  -0.015511  -0.009105
     9  H    0.010575   0.014234  -0.040485   0.479267  -0.291684   0.015114
    10  N   -0.135135   0.471279  -0.188029   0.003508   0.006759  -0.051689
    11  O    0.036314  -0.078547  -0.025504   0.010804  -0.010075  -0.000774
    12  O   -0.030994  -0.058686   0.024245  -0.004593  -0.004863   0.022934
    13  N    0.006513   0.015658  -0.008446  -0.082245   0.228173  -0.074222
    14  H   -0.025349   0.010033   0.009569   0.030155  -0.033310  -0.100064
    15  H    0.041120  -0.004746  -0.003650  -0.021156  -0.162441   0.099757
    16  Br  -0.247168   0.004562   0.018950   0.004231  -0.471559   0.720225
              7          8          9         10         11         12
     1  C    0.449616   0.034939   0.010575  -0.135135   0.036314  -0.030994
     2  C   -0.105996  -0.058317   0.014234   0.471279  -0.078547  -0.058686
     3  C   -0.004336   0.282912  -0.040485  -0.188029  -0.025504   0.024245
     4  C    0.007839  -0.062780   0.479267   0.003508   0.010804  -0.004593
     5  C   -0.033519  -0.015511  -0.291684   0.006759  -0.010075  -0.004863
     6  C   -0.171395  -0.009105   0.015114  -0.051689  -0.000774   0.022934
     7  H    0.414004   0.001831  -0.000181   0.007545  -0.001899  -0.005106
     8  H    0.001831   0.385545  -0.005057   0.004689   0.007131  -0.003122
     9  H   -0.000181  -0.005057   0.546286  -0.000625   0.000103   0.000153
    10  N    0.007545   0.004689  -0.000625   5.780904   0.097413   0.094192
    11  O   -0.001899   0.007131   0.000103   0.097413   8.662591  -0.109947
    12  O   -0.005106  -0.003122   0.000153   0.094192  -0.109947   8.665307
    13  N    0.000608  -0.000119   0.016768  -0.000258   0.000142   0.000110
    14  H   -0.000340  -0.000491   0.021540  -0.000131   0.000024   0.000011
    15  H    0.000359   0.000154  -0.002669   0.000109   0.000003  -0.000014
    16  Br  -0.059878  -0.000009   0.001027  -0.003376   0.000016   0.000528
             13         14         15         16
     1  C    0.006513  -0.025349   0.041120  -0.247168
     2  C    0.015658   0.010033  -0.004746   0.004562
     3  C   -0.008446   0.009569  -0.003650   0.018950
     4  C   -0.082245   0.030155  -0.021156   0.004231
     5  C    0.228173  -0.033310  -0.162441  -0.471559
     6  C   -0.074222  -0.100064   0.099757   0.720225
     7  H    0.000608  -0.000340   0.000359  -0.059878
     8  H   -0.000119  -0.000491   0.000154  -0.000009
     9  H    0.016768   0.021540  -0.002669   0.001027
    10  N   -0.000258  -0.000131   0.000109  -0.003376
    11  O    0.000142   0.000024   0.000003   0.000016
    12  O    0.000110   0.000011  -0.000014   0.000528
    13  N    6.500438   0.426515   0.370055  -0.005305
    14  H    0.426515   0.572582  -0.083195  -0.021606
    15  H    0.370055  -0.083195   0.534183   0.072853
    16  Br  -0.005305  -0.021606   0.072853  35.250130
 Mulliken atomic charges:
              1
     1  C   -0.334129
     2  C   -0.336839
     3  C   -0.456279
     4  C   -0.553816
     5  C    0.921147
     6  C    0.155894
     7  H    0.500851
     8  H    0.437312
     9  H    0.235634
    10  N    0.912844
    11  O   -0.587794
    12  O   -0.590155
    13  N   -0.394384
    14  H    0.194058
    15  H    0.159278
    16  Br  -0.263621
 Sum of Mulliken atomic charges =   0.00000
 Mulliken charges with hydrogens summed into heavy atoms:
              1
     1  C    0.166722
     2  C   -0.336839
     3  C   -0.018967
     4  C   -0.318183
     5  C    0.921147
     6  C    0.155894
    10  N    0.912844
    11  O   -0.587794
    12  O   -0.590155
    13  N   -0.041048
    16  Br  -0.263621
 Sum of Mulliken charges with hydrogens summed into heavy atoms =   0.00000
 Electronic spatial extent (au):  <R**2>=           2699.8118
 Charge=              0.0000 electrons
 Dipole moment (field-independent basis, Debye):
    X=              4.7704    Y=              4.2230    Z=              0.3937  Tot=              6.3832
 Quadrupole moment (field-independent basis, Debye-Ang):
   XX=            -88.8267   YY=            -67.2257   ZZ=            -77.6131
   XY=             -1.8459   XZ=              1.0995   YZ=              1.1563
 Traceless Quadrupole moment (field-independent basis, Debye-Ang):
   XX=            -10.9382   YY=             10.6628   ZZ=              0.2754
   XY=             -1.8459   XZ=              1.0995   YZ=              1.1563
 Octapole moment (field-independent basis, Debye-Ang**2):
  XXX=            151.5967  YYY=             11.3241  ZZZ=              0.2448  XYY=             40.0177
  XXY=             19.0362  XXZ=              2.5992  XZZ=             12.4912  YZZ=            -15.7663
  YYZ=              3.1542  XYZ=              2.8026
 Hexadecapole moment (field-independent basis, Debye-Ang**3):
 XXXX=          -2461.2913 YYYY=           -732.5732 ZZZZ=            -85.1020 XXXY=            -84.2814
 XXXZ=              7.6937 YYYX=            -32.9233 YYYZ=              9.6002 ZZZX=              0.6967
 ZZZY=              0.8040 XXYY=           -494.2203 XXZZ=           -379.1232 YYZZ=           -169.0052
 XXYZ=              6.6252 YYXZ=              7.2871 ZZXY=            -11.6537
 N-N= 8.424284124643D+02 E-N=-8.984394391645D+03  KE= 3.059901353633D+03
 1\1\GINC-DLT13\SP\RTD-CAM-B3LYP-FC\Gen\C6H5Br1N2O2\MATHEUSMAXIMO\08-Ma
 r-2023\0\\# td=(nstates=15) cam-b3lyp/gen scf=qc int=ultrafine\\NA+br 
 CAM-B3LYP def2-TZVPD Single point\\0,1\C,0,-0.52188894,-0.62064725,-0.
 00199883\C,0,-1.70379697,0.09534036,-0.00096968\C,0,-1.70355652,1.4798
 6178,0.00006634\C,0,-0.50566971,2.14990718,-0.0012541\C,0,0.71724217,1
 .46338085,-0.00390772\C,0,0.67154874,0.06101599,-0.00342235\H,0,-0.550
 17329,-1.69916388,-0.00038201\H,0,-2.64268107,2.01155924,0.0018424\H,0
 ,-0.49430708,3.23215691,-0.00379805\N,0,-2.96916293,-0.62538559,0.0011
 0667\O,0,-3.99248144,0.02983009,0.00399402\O,0,-2.93181023,-1.83978182
 ,-0.00001019\N,0,1.89204086,2.14436477,-0.03277602\H,0,1.89135787,3.13
 492215,0.12547546\H,0,2.75589842,1.65182893,0.10861838\Br,0,2.29288058
 ,-0.92164849,0.00077076\\Version=EM64L-G09RevA.02\State=1-A\HF=-3065.7
 693039\RMSD=0.000e+00\PG=C01 [X(C6H5Br1N2O2)]\\@


 GOD DOES NOT PLAY WITH DICE.
               -- A. EINSTEIN
 Job cpu time:  0 days 11 hours 49 minutes 41.9 seconds.
 File lengths (MBytes):  RWF=    501 Int=      0 D2E=      0 Chk=    104 Scr=      1
 Normal termination of Gaussian 09 at Wed Mar  8 21:48:05 2023.
