 hostname is         dlt12.abaxnet
 this is node-proc. number 0 running on node dlt12.abaxnet
 the total number of node-proc. spawned is   1

 ricc2 (dlt12.abaxnet) : TURBOMOLE V6.6( 19125 ) 27 May 2014 at 14:24:19
 Copyright (C) 2014 TURBOMOLE GmbH, Karlsruhe


    2023-01-26 02:05:08.116 



                              R I C C 2 - PROGRAM

                          the quantum chemistry groups
                             at the universities in
                           Karlsruhe, Bochum & Mainz
                                   Germany



   *-----------------------------------------------------------------------*
   |                     program will use  1 thread(s)                     |
   *-----------------------------------------------------------------------*


              +--------------------------------------------------+
              | Atomic coordinate, charge and isotop information |
              +--------------------------------------------------+

                    atomic coordinates            atom    charge  isotop
          1.08386571    2.07559971   -0.03646601    c      6.000     0
          2.69490287    0.00461393   -0.03491389    c      6.000     0
          1.77561889   -2.43429921   -0.03251794    c      6.000     0
         -0.80504425   -2.81059626   -0.03677865    c      6.000     0
         -2.47875668   -0.78028351   -0.04334226    c      6.000     0
         -1.47598498    1.67987352   -0.03975676    c      6.000     0
          1.87184681    3.96051214   -0.03024573    h      1.000     0
          3.07733765   -4.00317186   -0.02868023    h      1.000     0
         -1.55464024   -4.71356587   -0.04415720    h      1.000     0
          5.40901848    0.43915478   -0.02965436    n      7.000     0
          6.79463516   -1.39177447   -0.02294905    o      8.000     0
          6.14773829    2.61729293   -0.03168731    o      8.000     0
         -5.04144730   -1.08704100   -0.11975473    n      7.000     0
         -5.77157735   -2.77907192    0.32956884    h      1.000     0
         -6.12377156    0.43114440    0.24087679    h      1.000     0
         -3.21516360    3.58629054   -0.02712863    o      8.000     0
         -2.38857791    5.20532216   -0.01241286    h      1.000     0
 
       center of nuclear mass  :    1.03386552    0.25168308   -0.03652942
       center of nuclear charge:    0.92836130    0.23087358   -0.03234609

              +--------------------------------------------------+
              |               basis set information              |
              +--------------------------------------------------+

              we will work with the 1s 3p 5d 7f 9g ... basis set
              ...i.e. with spherical basis functions...

   type   atoms  prim   cont   basis
   ---------------------------------------------------------------------------
    c        6     52     37   def2-TZVPD   [6s3p3d1f|12s6p3d1f]
    h        6     11      9   def2-TZVPD   [3s2p|5s2p]
    n        2     52     37   def2-TZVPD   [6s3p3d1f|12s6p3d1f]
    o        3     55     40   def2-TZVPD   [6s4p3d1f|12s7p3d1f]
   ---------------------------------------------------------------------------
   total:   17    647    470
   ---------------------------------------------------------------------------

   total number of primitive shells          :   74
   total number of contracted shells         :  176
   total number of cartesian basis functions :  536
   total number of SCF-basis functions       :  470



   =========================================================================


     restricted closed shell calculation for the wavefunction models:
               ADC(2)     - Algebraic Diagrammatic Construction to 2. Order (strict)


     global parameters for ricc2 program:

        hard restart (reuse of interm.) :  disabled
        soft restart (reuse of vectors) :  disabled
        threshold for vector function   :    0.100000E-06
        convergence threshold energy    :    0.100000E-07
        linear dependence threshold     :    0.100000E-13
        global print level              :      1
        maximum number of iterations    :   500
        maximum number DIIS vectors     :    10
        max. dim. of reduced space      :   100
        core memory limit (MB)          :   500
        disk space limit (MB)           :   none


   =========================================================================
     "cartesian on" in $drvopt is ignored by $ricc2

    der. integral neglect threshold  :  0.10E-08
    integral neglect threshold       :  0.62E-12
    integral storage threshold THIZE :  0.10E-04
    integral storage threshold THIME :         5


                  +------------------------------------------+
                  |     Auxiliary basis set information      |
                  +------------------------------------------+

              we will work with the 1s 3p 5d 7f 9g ... basis set
              ...i.e. with spherical basis functions...

   type   atoms  prim   cont   basis
   ---------------------------------------------------------------------------
    c        6     97     92   def2-TZVPD   [9s7p5d4f1g|9s7p6d4f1g]
    h        6     32     24   def2-TZVPD   [5s3p2d|5s4p3d]
    n        2     97     92   def2-TZVPD   [9s7p5d4f1g|9s7p6d4f1g]
    o        3     97     92   def2-TZVPD   [9s7p5d4f1g|9s7p6d4f1g]
   ---------------------------------------------------------------------------
   total:   17   1259   1156
   ---------------------------------------------------------------------------

   total number of primitive shells          :   93
   total number of contracted shells         :  346
   total number of cartesian basis functions : 1421
   total number of SCF-basis functions       : 1156


 symmetry group of the molecule :   c1 

 the group has the following generators :
   c1(z)

    1 symmetry operations found

 there are 1 real representations :   a   

 maximum number of shells which are related by symmetry :  1


 The symmetry information takes   1 MB

*---------------------------------------------------------------------*
|               simplified C1 algorithm will be applied               |
*---------------------------------------------------------------------*
  MOs are in ASCII format !


 reading orbital data $scfmo  from file mos . 

 orbital characterization : scfconv=7
 

         --------------------------------------------------------------
                   checking mo's by calculating trace(D*S)

              number of electrons : 
                 from trace(D*S)         :   79.999999999999
                 from occupation numbers :   80.000000000000

              molecular charge           :    0.000000000000
         --------------------------------------------------------------

 time elapsed for calculating density matrices :   0.024 sec
 all orbitals will be active in the correlation treatment


   Molecular Orbital Statistic:
   ============================

   -----------------------------
   orbitals in total:
   -----------------------------
    frozen occupied :      0
    active occupied :     40
    active virtual  :    430
    frozen virtual  :      0
    all together    :    470
   -----------------------------


     time in riccmos       cpu:  0.24 sec    wall:  1.12 sec    ratio:  0.2

     total memory allocated for calculation of (Q|P)**(-1/2) : 16 MiB


     calculation of (P|Q) ...
     time in lp2sym        cpu:  0.05 sec    wall:  0.05 sec    ratio:  1.0


     calculation of the Cholesky decomposition of (P|Q)**(-1) ...
     time in invmetri      cpu:  0.17 sec    wall:  0.33 sec    ratio:  0.5

   threshold for RMS(d[D]) in SCF was     :  0.10E-07
   integral neglect threshold             :  0.62E-12
   derivative integral neglect threshold  :  0.10E-08


 setting up bound for integral derivative estimation

 increment for numerical differentiation : 0.00050000

   =========================================================================

     Energy of reference wave function is  -564.2938124282000
     Maximum orbital residual is           0.5511117159065E-05


     Number of symmetry-nonredundant auxiliary basis functions:     1156

     Block lengths for integral files:
        frozen occupied (BOI):        0 MiB
        active occupied (BJI):        1 MiB
        active virtual  (BAI):        4 MiB
        frozen virtual  (BGI):        0 MiB
               general  (BTI):        5 MiB

   =========================================================================




   **************************************************************************
   *                                                                        *
   *          OPTIMIZATION OF THE GROUND STATE CLUSTER AMPLITUDES           *
   *                                                                        *
   **************************************************************************


   Iter.   MP2 energy       Norm(Omega)    Norm(t1)  Norm(t2)     cpu    wall
   ...........................................................................
    1   -566.5599633225    0.1728898968     0.00000   0.46874    0.84    1.01
   ...........................................................................


     time in total         cpu:  0 min 50 s  wall:  1 min  1 s  ratio:  0.8


     **********************************************************************
     *                                                                    *
     *   RHF  energy                             :   -564.2938124282      *
     *   MP2 correlation energy                  :     -2.2661508943      *
     *                                                                    *
     *   Final MP2 energy                        :   -566.5599633225      *
     *                                                                    *
     *   Norm of MP1 T2 amplitudes               :      0.4687383520      *
     *                                                                    *
     *   D1 diagnostic                           :      0.0567            *
     *                                                                    *
     **********************************************************************



 **************************************************************
 *                                                            *
 *    OPTIMIZATION OF THE EXCITED STATE CLUSTER AMPLITUDES    *
 *                                                            *
 **************************************************************


  preoptimize excitation energies/vectors using CCS:

  ==================================================


 ======== LINEAR CC RESPONSE SOLVER ========

    threshold for convergence: 0.10E-02
    maximum number of simultaneous jacoby matrix transformations: 15
                                                
     summary of start vectors generation:
     -------------------------------------------
     type of solution vectors      : RE0
     symmetry                      : a  
     number of vectors requested   :    15
     number of vectors generated   :    15
       -- guessed as rhs/(e_a-e_i) :    15
     -------------------------------------------
                                                

    Iter  #Vectors  time (min)    max. residual 
    --------------------------------------------
      1      15         2.84     0.15E+00  (  7)
      2      15         2.87     0.54E-01  (  1)
      3      15         3.47     0.51E-01  ( 14)
      4      15         2.88     0.64E-01  (  9)
      5      15         3.08     0.18E+00  (  5)
  dimension of red. space became too large.
  try internal restart...
      6      15         2.86     0.12E+00  (  4)
                                                
     summary of start vectors generation:
     -------------------------------------------
     type of solution vectors      : RE0
     symmetry                      : a  
     number of vectors requested   :    15
     number of vectors generated   :    15
       -- restarted from file      :    15
     -------------------------------------------
                                                

    Iter  #Vectors  time (min)    max. residual 
    --------------------------------------------
      7      15         2.85     0.12E+00  (  4)
      8      13         2.67     0.49E-01  (  2)
      9       9         1.81     0.11E-01  (  2)
     10       7         1.40     0.30E-02  (  2)
     11       5         0.97     0.12E-02  ( 13)
     12       1         0.31     0.92E-03  (  2)
    --------------------------------------------
    converged in 12 iterations

         Total time         28.04 minutes


 ===========================================




 Note that this is the intermediate result of a preoptimization!
 The convergence threshold was  0.1E-02 only!


 +==================================================================+
 | sym | multi | state |          CCS excitation energies           |
 |     |       |       +--------------------------------------------+
 |     |       |       |   Hartree    |     eV       |     cm-1     |
 +==================================================================+
 | a   |   1   |   1   |    0.1901508 |      5.17427 |    41733.283 |
 | a   |   1   |   2   |    0.1930081 |      5.25202 |    42360.384 |
 | a   |   1   |   3   |    0.2053162 |      5.58694 |    45061.703 |
 | a   |   1   |   4   |    0.2055549 |      5.59343 |    45114.091 |
 | a   |   1   |   5   |    0.2188284 |      5.95462 |    48027.286 |
 | a   |   1   |   6   |    0.2389087 |      6.50104 |    52434.390 |
 | a   |   1   |   7   |    0.2499975 |      6.80278 |    54868.109 |
 | a   |   1   |   8   |    0.2539975 |      6.91162 |    55746.010 |
 | a   |   1   |   9   |    0.2641091 |      7.18677 |    57965.247 |
 | a   |   1   |  10   |    0.2659681 |      7.23736 |    58373.244 |
 | a   |   1   |  11   |    0.2707204 |      7.36668 |    59416.257 |
 | a   |   1   |  12   |    0.2716989 |      7.39330 |    59631.026 |
 | a   |   1   |  13   |    0.2856892 |      7.77400 |    62701.534 |
 | a   |   1   |  14   |    0.2864186 |      7.79385 |    62861.615 |
 | a   |   1   |  15   |    0.2882534 |      7.84377 |    63264.305 |
 +==================================================================+




  preoptimize ADC(2) excitation energies/vectors using a quasi linear algorithm:
  ==============================================================================


 ======== LINEAR CC RESPONSE SOLVER ========

    threshold for convergence: 0.10E-02
    maximum number of simultaneous jacoby matrix transformations: 15
                                                
     summary of start vectors generation:
     -------------------------------------------
     type of solution vectors      : RE0
     symmetry                      : a  
     number of vectors requested   :    15
     number of vectors generated   :    15
       -- restarted from file      :    15
     -------------------------------------------
                                                

    Iter  #Vectors  time (min)    max. residual 
    --------------------------------------------
 threshold for this macro iteration:  4.557351197628351E-002
      1      15        21.11     0.93E-01  (  1)
 ...adapted threshold to:  5.680235666537922E-002
      2       7         9.58     0.39E-01  ( 11)
                                                
     summary of start vectors generation:
     -------------------------------------------
     type of solution vectors      : RE0
     symmetry                      : a  
     number of vectors requested   :    15
     number of vectors generated   :    15
       -- restarted from file      :    15
     -------------------------------------------
                                                

    Iter  #Vectors  time (min)    max. residual 
    --------------------------------------------
 threshold for this macro iteration:  6.328110739516085E-003
      3      15        19.75     0.39E-01  ( 11)
      4      15        19.63     0.26E-01  ( 13)
 ...adapted threshold to:  7.659311669215685E-003
      5      15        20.00     0.50E-01  ( 13)
 ...adapted threshold to:  1.580538383541386E-002
      6       4         5.30     0.37E-01  ( 13)
 ...adapted threshold to:  1.764651485937818E-002
      7       1         1.57     0.13E-01  ( 13)
                                                
     summary of start vectors generation:
     -------------------------------------------
     type of solution vectors      : RE0
     symmetry                      : a  
     number of vectors requested   :    15
     number of vectors generated   :    15
       -- restarted from file      :    15
     -------------------------------------------
                                                

    Iter  #Vectors  time (min)    max. residual 
    --------------------------------------------
 threshold for this macro iteration:  1.310791083512536E-003
      8      15        19.92     0.13E-01  ( 13)
      9       8        10.93     0.44E-02  ( 13)
     10       5         6.56     0.39E-02  ( 15)
     11       3         4.07     0.24E-02  ( 15)
     12       3         4.08     0.15E-02  ( 13)
     13       2         3.07     0.20E-02  ( 15)
     14       1         1.65     0.30E-02  ( 15)
     15       1         1.63     0.16E-01  ( 15)
 ...adapted threshold to:  1.838836021685664E-003
     16       2         2.86     0.32E-01  ( 14)
 ...adapted threshold to:  3.817521604531637E-003
     17       2         3.05     0.36E-01  ( 14)
 ...adapted threshold to:  7.379715117229568E-003
     18       1         1.61     0.32E-01  ( 14)
 ...adapted threshold to:  9.176583154626550E-003
     19       1         1.56     0.19E-01  ( 14)
 ...adapted threshold to:  9.726829235175261E-003
     20       1         1.73     0.10E-01  ( 14)
 ...adapted threshold to:  9.885205540586417E-003
     21       1         1.66     0.62E-02  ( 14)
                                                
     summary of start vectors generation:
     -------------------------------------------
     type of solution vectors      : RE0
     symmetry                      : a  
     number of vectors requested   :    15
     number of vectors generated   :    15
       -- restarted from file      :    15
     -------------------------------------------
                                                

    Iter  #Vectors  time (min)    max. residual 
    --------------------------------------------
 threshold for this macro iteration:  2.324993922185659E-003
     22      15        22.93     0.32E-02  ( 14)
     23       1         1.70     0.54E-02  ( 14)
     24       1         1.61     0.51E-02  ( 14)
     25       1         2.00     0.24E-02  ( 14)
     26       1         1.70     0.16E-02  ( 14)
                                                
     summary of start vectors generation:
     -------------------------------------------
     type of solution vectors      : RE0
     symmetry                      : a  
     number of vectors requested   :    15
     number of vectors generated   :    15
       -- restarted from file      :    15
     -------------------------------------------
                                                

    Iter  #Vectors  time (min)    max. residual 
    --------------------------------------------
 threshold for this macro iteration:  1.000000000000000E-003
     27      15        21.63     0.78E-03  ( 14)
    --------------------------------------------
    converged in 27 iterations

         Total time        212.95 minutes


 ===========================================




 Note that this is the intermediate result of a preoptimization!
 The convergence threshold was  0.1E-02 only!


 +==================================================================+
 | sym | multi | state |          ADC(2) excitation energies        |
 |     |       |       +--------------------------------------------+
 |     |       |       |   Hartree    |     eV       |     cm-1     |
 +==================================================================+
 | a   |   1   |   1   |    0.1381789 |      3.76004 |    30326.772 |
 | a   |   1   |   2   |    0.1510742 |      4.11094 |    33156.959 |
 | a   |   1   |   3   |    0.1633358 |      4.44459 |    35848.061 |
 | a   |   1   |   4   |    0.1705249 |      4.64022 |    37425.884 |
 | a   |   1   |   5   |    0.1954066 |      5.31729 |    42886.800 |
 | a   |   1   |   6   |    0.1988792 |      5.41178 |    43648.939 |
 | a   |   1   |   7   |    0.2147409 |      5.84340 |    47130.183 |
 | a   |   1   |   8   |    0.2199694 |      5.98567 |    48277.695 |
 | a   |   1   |   9   |    0.2297863 |      6.25280 |    50432.267 |
 | a   |   1   |  10   |    0.2324082 |      6.32415 |    51007.698 |
 | a   |   1   |  11   |    0.2405646 |      6.54610 |    52797.822 |
 | a   |   1   |  12   |    0.2451069 |      6.66970 |    53794.755 |
 | a   |   1   |  13   |    0.2473529 |      6.73082 |    54287.696 |
 | a   |   1   |  14   |    0.2535454 |      6.89932 |    55646.789 |
 | a   |   1   |  15   |    0.2620074 |      7.12958 |    57503.976 |
 +==================================================================+





  solve for ADC(2) excitation energies/vectors using a DIIS algorithm:
  =================================================================
                                                
     summary of start vectors generation:
     -------------------------------------------
     type of solution vectors      : RE0
     symmetry                      : a  
     number of vectors requested   :    15
     number of vectors generated   :    15
       -- restarted from file      :    15
     -------------------------------------------
                                                


 ========= DIIS CC RESPONSE SOLVER =========

    threshold for convergence:0.10E-05
    max. nb. of DIIS vectors :      10
    maximum number of simultaneous jacoby matrix transformations: 15

    Iter  #Vectors  time (min)   residual
    --------------------------------------
      1      15        22.84     0.20E-02  ( 14)    0.15E+01
      2      15        21.46     0.74E-03  ( 14)    0.52E-01
      3      15        20.81     0.61E-03  ( 14)    0.16E+00
      4      15        21.65     0.52E-03  ( 14)    0.45E-01
      5      15        21.68     0.86E-03  ( 14)    0.10E+00
      6      11        15.65     0.24E-03  ( 14)    0.11E-01
      7      10        14.25     0.29E-03  ( 14)    0.17E-01
      8       7        10.83     0.11E-03  ( 14)    0.42E-02
      9       4         6.29     0.59E-04  ( 14)    0.20E-02
     10       3         4.44     0.56E-04  ( 14)    0.20E-02
     11       2         3.20     0.26E-04  ( 14)    0.19E-02
     12       2         2.86     0.20E-04  ( 14)    0.19E-02
     13       2         2.97     0.15E-04  ( 15)    0.19E-02
     14       2         2.91     0.11E-04  ( 15)    0.19E-02
     15       2         3.09     0.86E-05  ( 15)    0.19E-02
     16       2         2.94     0.68E-05  ( 15)    0.19E-02
     17       2         2.93     0.57E-05  ( 15)    0.19E-02
     18       2         2.95     0.45E-05  ( 15)    0.19E-02
     19       2         2.95     0.37E-05  ( 15)    0.19E-02
     20       2         3.39     0.29E-05  ( 15)    0.19E-02
     21       1         1.89     0.25E-05  ( 15)    0.19E-02
     22       1         1.57     0.22E-05  ( 15)    0.19E-02
     23       1         1.60     0.19E-05  ( 15)    0.19E-02
     24       1         1.62     0.17E-05  ( 15)    0.19E-02
     25       1         1.96     0.14E-05  ( 15)    0.19E-02
     26       1         1.58     0.12E-05  ( 15)    0.19E-02
     27       1         1.59     0.10E-05  ( 15)    0.19E-02
     28       1         1.58     0.91E-06  ( 15)    0.19E-02
    --------------------------------------
    converged in  28 iterations

   Total time        203.49 minutes


 ===========================================





 +================================================================================+
 | sym | multi | state |          ADC(2) excitation energies    |  %t1   |  %t2   |
 |     |       |       +----------------------------------------+--------+--------+
 |     |       |       |   Hartree    |    eV      |    cm-1    |    %   |    %   |
 +================================================================================+
 | a   |   1   |   1   |    0.1381809 |    3.76009 |  30327.206 |  89.74 |  10.26 |
 | a   |   1   |   2   |    0.1510779 |    4.11104 |  33157.765 |  88.00 |  12.00 |
 | a   |   1   |   3   |    0.1633367 |    4.44462 |  35848.269 |  90.14 |   9.86 |
 | a   |   1   |   4   |    0.1705265 |    4.64026 |  37426.244 |  89.25 |  10.75 |
 | a   |   1   |   5   |    0.1954068 |    5.31729 |  42886.825 |  91.71 |   8.29 |
 | a   |   1   |   6   |    0.1988813 |    5.41183 |  43649.395 |  88.65 |  11.35 |
 | a   |   1   |   7   |    0.2147406 |    5.84339 |  47130.113 |  91.70 |   8.30 |
 | a   |   1   |   8   |    0.2199702 |    5.98569 |  48277.882 |  88.95 |  11.05 |
 | a   |   1   |   9   |    0.2297859 |    6.25279 |  50432.178 |  91.13 |   8.87 |
 | a   |   1   |  10   |    0.2324070 |    6.32412 |  51007.441 |  89.66 |  10.34 |
 | a   |   1   |  11   |    0.2405644 |    6.54609 |  52797.785 |  91.50 |   8.50 |
 | a   |   1   |  12   |    0.2451062 |    6.66968 |  53794.582 |  90.98 |   9.02 |
 | a   |   1   |  13   |    0.2473515 |    6.73078 |  54287.369 |  90.27 |   9.73 |
 | a   |   1   |  14   |    0.2536056 |    6.90096 |  55659.997 |  83.33 |  16.67 |
 | a   |   1   |  15   |    0.2620057 |    7.12954 |  57503.602 |  91.18 |   8.82 |
 +================================================================================+


       Energy:     0.1381809 H      3.76009 eV    30327.206 cm-1

     +=======================================================================+
     | type: RE0                    symmetry: a               state:    1    |
     +-----------------------+-----------------------+-----------------------+
     | occ. orb.  index spin | vir. orb.  index spin |  coeff/|amp|     %    |
     +=======================+=======================+=======================+
     |   36 a       36       |   42 a       42       |   0.88470      78.3   |
     |   36 a       36       |   58 a       58       |   0.25770       6.6   |
     |   36 a       36       |   55 a       55       |  -0.20640       4.3   |
     |   36 a       36       |   47 a       47       |  -0.17345       3.0   |
     |   36 a       36       |   59 a       59       |   0.14173       2.0   |
     |   36 a       36       |   46 a       46       |   0.08243       0.7   |
     |   36 a       36       |   41 a       41       |  -0.06953       0.5   |
     +=======================+=======================+=======================+
     norm of printed elements:  0.95350


       Energy:     0.1510779 H      4.11104 eV    33157.765 cm-1

     +=======================================================================+
     | type: RE0                    symmetry: a               state:    2    |
     +-----------------------+-----------------------+-----------------------+
     | occ. orb.  index spin | vir. orb.  index spin |  coeff/|amp|     %    |
     +=======================+=======================+=======================+
     |   40 a       40       |   42 a       42       |   0.95065      90.4   |
     |   40 a       40       |   49 a       49       |  -0.12817       1.6   |
     |   39 a       39       |   47 a       47       |  -0.09171       0.8   |
     |   40 a       40       |   41 a       41       |  -0.08290       0.7   |
     |   40 a       40       |   58 a       58       |   0.07303       0.5   |
     |   39 a       39       |   49 a       49       |   0.07025       0.5   |
     |   39 a       39       |   42 a       42       |   0.06776       0.5   |
     +=======================+=======================+=======================+
     norm of printed elements:  0.95030


       Energy:     0.1633367 H      4.44462 eV    35848.269 cm-1

     +=======================================================================+
     | type: RE0                    symmetry: a               state:    3    |
     +-----------------------+-----------------------+-----------------------+
     | occ. orb.  index spin | vir. orb.  index spin |  coeff/|amp|     %    |
     +=======================+=======================+=======================+
     |   35 a       35       |   42 a       42       |   0.88032      77.5   |
     |   35 a       35       |   58 a       58       |   0.24201       5.9   |
     |   35 a       35       |   55 a       55       |  -0.19687       3.9   |
     |   35 a       35       |   47 a       47       |  -0.16726       2.8   |
     |   35 a       35       |   59 a       59       |   0.13323       1.8   |
     |   32 a       32       |   42 a       42       |   0.11963       1.4   |
     |   35 a       35       |   46 a       46       |   0.07985       0.6   |
     |   35 a       35       |   41 a       41       |  -0.06941       0.5   |
     |   35 a       35       |   64 a       64       |  -0.06327       0.4   |
     |   22 a       22       |   42 a       42       |   0.05671       0.3   |
     |   25 a       25       |   42 a       42       |  -0.05636       0.3   |
     +=======================+=======================+=======================+
     norm of printed elements:  0.95392


       Energy:     0.1705265 H      4.64026 eV    37426.244 cm-1

     +=======================================================================+
     | type: RE0                    symmetry: a               state:    4    |
     +-----------------------+-----------------------+-----------------------+
     | occ. orb.  index spin | vir. orb.  index spin |  coeff/|amp|     %    |
     +=======================+=======================+=======================+
     |   39 a       39       |   42 a       42       |   0.63262      40.0   |
     |   40 a       40       |   47 a       47       |   0.51107      26.1   |
     |   40 a       40       |   49 a       49       |  -0.41996      17.6   |
     |   40 a       40       |   46 a       46       |  -0.20056       4.0   |
     |   39 a       39       |   52 a       52       |   0.13291       1.8   |
     |   40 a       40       |   45 a       45       |   0.11756       1.4   |
     |   40 a       40       |   42 a       42       |  -0.09910       1.0   |
     |   40 a       40       |   52 a       52       |  -0.08339       0.7   |
     |   39 a       39       |   58 a       58       |  -0.07557       0.6   |
     |   40 a       40       |   59 a       59       |  -0.07469       0.6   |
     |   40 a       40       |   55 a       55       |   0.06492       0.4   |
     |   40 a       40       |   58 a       58       |   0.06131       0.4   |
     |   39 a       39       |   47 a       47       |  -0.06104       0.4   |
     |   39 a       39       |   41 a       41       |  -0.05296       0.3   |
     +=======================+=======================+=======================+
     norm of printed elements:  0.95204


       Energy:     0.1954068 H      5.31729 eV    42886.825 cm-1

     +=======================================================================+
     | type: RE0                    symmetry: a               state:    5    |
     +-----------------------+-----------------------+-----------------------+
     | occ. orb.  index spin | vir. orb.  index spin |  coeff/|amp|     %    |
     +=======================+=======================+=======================+
     |   40 a       40       |   41 a       41       |   0.82284      67.7   |
     |   40 a       40       |   43 a       43       |   0.31952      10.2   |
     |   39 a       39       |   42 a       42       |   0.15057       2.3   |
     |   40 a       40       |   60 a       60       |   0.14716       2.2   |
     |   40 a       40       |   45 a       45       |  -0.14353       2.1   |
     |   37 a       37       |   41 a       41       |   0.13722       1.9   |
     |   40 a       40       |   48 a       48       |  -0.10759       1.2   |
     |   40 a       40       |   50 a       50       |  -0.09763       1.0   |
     |   40 a       40       |   56 a       56       |  -0.09648       0.9   |
     |   30 a       30       |   41 a       41       |   0.09626       0.9   |
     |   40 a       40       |   46 a       46       |   0.08691       0.8   |
     |   40 a       40       |   71 a       71       |  -0.08427       0.7   |
     |   37 a       37       |   43 a       43       |   0.07645       0.6   |
     |   40 a       40       |   66 a       66       |  -0.06954       0.5   |
     |   39 a       39       |   41 a       41       |   0.06841       0.5   |
     |   39 a       39       |   43 a       43       |  -0.06691       0.4   |
     |   40 a       40       |   49 a       49       |   0.05729       0.3   |
     |   40 a       40       |   42 a       42       |   0.05377       0.3   |
     |   37 a       37       |   44 a       44       |   0.05357       0.3   |
     |   40 a       40       |   44 a       44       |   0.05272       0.3   |
     +=======================+=======================+=======================+
     norm of printed elements:  0.94891


       Energy:     0.1988813 H      5.41183 eV    43649.395 cm-1

     +=======================================================================+
     | type: RE0                    symmetry: a               state:    6    |
     +-----------------------+-----------------------+-----------------------+
     | occ. orb.  index spin | vir. orb.  index spin |  coeff/|amp|     %    |
     +=======================+=======================+=======================+
     |   39 a       39       |   42 a       42       |   0.65225      42.5   |
     |   40 a       40       |   47 a       47       |  -0.43261      18.7   |
     |   40 a       40       |   49 a       49       |   0.33797      11.4   |
     |   38 a       38       |   42 a       42       |  -0.31929      10.2   |
     |   40 a       40       |   41 a       41       |  -0.17061       2.9   |
     |   40 a       40       |   46 a       46       |   0.15025       2.3   |
     |   39 a       39       |   58 a       58       |   0.09310       0.9   |
     |   39 a       39       |   41 a       41       |  -0.08209       0.7   |
     |   40 a       40       |   45 a       45       |  -0.07747       0.6   |
     |   37 a       37       |   47 a       47       |  -0.07711       0.6   |
     |   40 a       40       |   48 a       48       |   0.07480       0.6   |
     |   34 a       34       |   42 a       42       |  -0.07467       0.6   |
     |   40 a       40       |   55 a       55       |  -0.07448       0.6   |
     |   37 a       37       |   49 a       49       |   0.06571       0.4   |
     |   38 a       38       |   58 a       58       |  -0.06282       0.4   |
     |   39 a       39       |   55 a       55       |  -0.06198       0.4   |
     |   39 a       39       |   49 a       49       |  -0.05698       0.3   |
     |   38 a       38       |   47 a       47       |   0.05354       0.3   |
     |   38 a       38       |   55 a       55       |   0.05337       0.3   |
     |   40 a       40       |   59 a       59       |   0.05285       0.3   |
     +=======================+=======================+=======================+
     norm of printed elements:  0.94837


       Energy:     0.2147406 H      5.84339 eV    47130.113 cm-1

     +=======================================================================+
     | type: RE0                    symmetry: a               state:    7    |
     +-----------------------+-----------------------+-----------------------+
     | occ. orb.  index spin | vir. orb.  index spin |  coeff/|amp|     %    |
     +=======================+=======================+=======================+
     |   40 a       40       |   43 a       43       |   0.79946      63.9   |
     |   40 a       40       |   41 a       41       |  -0.27870       7.8   |
     |   39 a       39       |   41 a       41       |  -0.24549       6.0   |
     |   40 a       40       |   44 a       44       |   0.21431       4.6   |
     |   37 a       37       |   43 a       43       |   0.15614       2.4   |
     |   40 a       40       |   67 a       67       |  -0.11046       1.2   |
     |   40 a       40       |   56 a       56       |   0.09798       1.0   |
     |   34 a       34       |   41 a       41       |   0.09540       0.9   |
     |   38 a       38       |   42 a       42       |   0.09167       0.8   |
     |   40 a       40       |   47 a       47       |   0.08678       0.8   |
     |   40 a       40       |   45 a       45       |  -0.07944       0.6   |
     |   40 a       40       |   48 a       48       |   0.07743       0.6   |
     |   39 a       39       |   43 a       43       |  -0.07066       0.5   |
     |   30 a       30       |   41 a       41       |  -0.06940       0.5   |
     |   30 a       30       |   43 a       43       |   0.06739       0.5   |
     |   40 a       40       |   65 a       65       |   0.06234       0.4   |
     |   37 a       37       |   44 a       44       |   0.06005       0.4   |
     |   40 a       40       |   42 a       42       |  -0.05838       0.3   |
     |   40 a       40       |   54 a       54       |  -0.05711       0.3   |
     |   39 a       39       |   60 a       60       |  -0.05542       0.3   |
     +=======================+=======================+=======================+
     norm of printed elements:  0.93810


       Energy:     0.2199702 H      5.98569 eV    48277.882 cm-1

     +=======================================================================+
     | type: RE0                    symmetry: a               state:    8    |
     +-----------------------+-----------------------+-----------------------+
     | occ. orb.  index spin | vir. orb.  index spin |  coeff/|amp|     %    |
     +=======================+=======================+=======================+
     |   38 a       38       |   42 a       42       |   0.85517      73.1   |
     |   39 a       39       |   42 a       42       |   0.24655       6.1   |
     |   40 a       40       |   47 a       47       |  -0.16429       2.7   |
     |   38 a       38       |   58 a       58       |   0.14531       2.1   |
     |   38 a       38       |   47 a       47       |  -0.12846       1.7   |
     |   38 a       38       |   55 a       55       |  -0.11957       1.4   |
     |   40 a       40       |   49 a       49       |   0.11285       1.3   |
     |   40 a       40       |   55 a       55       |  -0.08789       0.8   |
     |   38 a       38       |   59 a       59       |   0.08118       0.7   |
     |   37 a       37       |   47 a       47       |  -0.07858       0.6   |
     |   40 a       40       |   43 a       43       |  -0.07453       0.6   |
     |   38 a       38       |   41 a       41       |  -0.06836       0.5   |
     |   37 a       37       |   49 a       49       |   0.06543       0.4   |
     |   38 a       38       |   52 a       52       |  -0.06376       0.4   |
     |   38 a       38       |   46 a       46       |   0.06156       0.4   |
     |   40 a       40       |   46 a       46       |   0.05383       0.3   |
     |   38 a       38       |   43 a       43       |   0.04552       0.2   |
     |   34 a       34       |   42 a       42       |  -0.04393       0.2   |
     |   36 a       36       |   44 a       44       |   0.04128       0.2   |
     |   36 a       36       |   46 a       46       |  -0.04056       0.2   |
     +=======================+=======================+=======================+
     norm of printed elements:  0.93684


       Energy:     0.2297859 H      6.25279 eV    50432.178 cm-1

     +=======================================================================+
     | type: RE0                    symmetry: a               state:    9    |
     +-----------------------+-----------------------+-----------------------+
     | occ. orb.  index spin | vir. orb.  index spin |  coeff/|amp|     %    |
     +=======================+=======================+=======================+
     |   40 a       40       |   44 a       44       |   0.82562      68.2   |
     |   40 a       40       |   43 a       43       |  -0.27967       7.8   |
     |   40 a       40       |   48 a       48       |   0.27103       7.3   |
     |   40 a       40       |   71 a       71       |   0.14259       2.0   |
     |   40 a       40       |   61 a       61       |   0.13081       1.7   |
     |   40 a       40       |   58 a       58       |   0.11037       1.2   |
     |   37 a       37       |   44 a       44       |   0.09380       0.9   |
     |   40 a       40       |   52 a       52       |  -0.08378       0.7   |
     |   40 a       40       |   55 a       55       |  -0.08006       0.6   |
     |   40 a       40       |   68 a       68       |  -0.06660       0.4   |
     |   40 a       40       |   56 a       56       |  -0.06611       0.4   |
     |   37 a       37       |   41 a       41       |   0.06430       0.4   |
     |   40 a       40       |   47 a       47       |   0.06236       0.4   |
     |   30 a       30       |   44 a       44       |   0.06190       0.4   |
     |   40 a       40       |   51 a       51       |   0.05751       0.3   |
     |   39 a       39       |   41 a       41       |  -0.05247       0.3   |
     |   40 a       40       |   50 a       50       |  -0.05230       0.3   |
     |   40 a       40       |   77 a       77       |  -0.05180       0.3   |
     |   40 a       40       |   74 a       74       |  -0.05110       0.3   |
     |   40 a       40       |   66 a       66       |  -0.05022       0.3   |
     +=======================+=======================+=======================+
     norm of printed elements:  0.94245


       Energy:     0.2324070 H      6.32412 eV    51007.441 cm-1

     +=======================================================================+
     | type: RE0                    symmetry: a               state:   10    |
     +-----------------------+-----------------------+-----------------------+
     | occ. orb.  index spin | vir. orb.  index spin |  coeff/|amp|     %    |
     +=======================+=======================+=======================+
     |   40 a       40       |   58 a       58       |  -0.48079      23.1   |
     |   40 a       40       |   52 a       52       |   0.41873      17.5   |
     |   39 a       39       |   47 a       47       |  -0.35806      12.8   |
     |   40 a       40       |   55 a       55       |   0.35464      12.6   |
     |   39 a       39       |   49 a       49       |   0.26858       7.2   |
     |   37 a       37       |   42 a       42       |   0.22638       5.1   |
     |   40 a       40       |   44 a       44       |   0.19810       3.9   |
     |   40 a       40       |   59 a       59       |  -0.15756       2.5   |
     |   39 a       39       |   46 a       46       |   0.14152       2.0   |
     |   40 a       40       |   64 a       64       |   0.12330       1.5   |
     |   40 a       40       |   69 a       69       |  -0.09745       0.9   |
     |   40 a       40       |   62 a       62       |   0.07994       0.6   |
     |   39 a       39       |   55 a       55       |  -0.07570       0.6   |
     |   39 a       39       |   45 a       45       |  -0.07309       0.5   |
     |   40 a       40       |   51 a       51       |  -0.07284       0.5   |
     |   34 a       34       |   47 a       47       |   0.06969       0.5   |
     |   40 a       40       |   46 a       46       |   0.06196       0.4   |
     |   38 a       38       |   42 a       42       |   0.05881       0.3   |
     |   37 a       37       |   52 a       52       |   0.05394       0.3   |
     |   39 a       39       |   59 a       59       |   0.05042       0.3   |
     +=======================+=======================+=======================+
     norm of printed elements:  0.93303


       Energy:     0.2405644 H      6.54609 eV    52797.785 cm-1

     +=======================================================================+
     | type: RE0                    symmetry: a               state:   11    |
     +-----------------------+-----------------------+-----------------------+
     | occ. orb.  index spin | vir. orb.  index spin |  coeff/|amp|     %    |
     +=======================+=======================+=======================+
     |   40 a       40       |   46 a       46       |   0.56149      31.5   |
     |   39 a       39       |   41 a       41       |  -0.46191      21.3   |
     |   40 a       40       |   48 a       48       |  -0.45111      20.4   |
     |   40 a       40       |   47 a       47       |   0.22712       5.2   |
     |   40 a       40       |   43 a       43       |  -0.15334       2.4   |
     |   34 a       34       |   41 a       41       |   0.10958       1.2   |
     |   40 a       40       |   61 a       61       |   0.10409       1.1   |
     |   40 a       40       |   50 a       50       |   0.09128       0.8   |
     |   40 a       40       |   71 a       71       |  -0.09020       0.8   |
     |   40 a       40       |   70 a       70       |   0.08974       0.8   |
     |   39 a       39       |   56 a       56       |   0.08423       0.7   |
     |   39 a       39       |   60 a       60       |  -0.08403       0.7   |
     |   40 a       40       |   45 a       45       |  -0.08258       0.7   |
     |   39 a       39       |   48 a       48       |   0.08086       0.7   |
     |   39 a       39       |   43 a       43       |   0.07508       0.6   |
     |   39 a       39       |   44 a       44       |   0.07428       0.6   |
     |   37 a       37       |   46 a       46       |   0.07261       0.5   |
     |   40 a       40       |   65 a       65       |  -0.07094       0.5   |
     |   40 a       40       |   60 a       60       |  -0.06702       0.4   |
     |   40 a       40       |   74 a       74       |  -0.06602       0.4   |
     +=======================+=======================+=======================+
     norm of printed elements:  0.91241


       Energy:     0.2451062 H      6.66968 eV    53794.582 cm-1

     +=======================================================================+
     | type: RE0                    symmetry: a               state:   12    |
     +-----------------------+-----------------------+-----------------------+
     | occ. orb.  index spin | vir. orb.  index spin |  coeff/|amp|     %    |
     +=======================+=======================+=======================+
     |   39 a       39       |   41 a       41       |   0.65613      43.1   |
     |   40 a       40       |   46 a       46       |   0.35212      12.4   |
     |   40 a       40       |   48 a       48       |  -0.27802       7.7   |
     |   39 a       39       |   43 a       43       |   0.24102       5.8   |
     |   40 a       40       |   41 a       41       |  -0.19232       3.7   |
     |   39 a       39       |   48 a       48       |  -0.15778       2.5   |
     |   40 a       40       |   43 a       43       |   0.15511       2.4   |
     |   40 a       40       |   44 a       44       |   0.14479       2.1   |
     |   40 a       40       |   47 a       47       |   0.12117       1.5   |
     |   34 a       34       |   41 a       41       |  -0.11581       1.3   |
     |   39 a       39       |   45 a       45       |  -0.11316       1.3   |
     |   39 a       39       |   60 a       60       |   0.11159       1.2   |
     |   39 a       39       |   46 a       46       |   0.09945       1.0   |
     |   39 a       39       |   71 a       71       |  -0.09524       0.9   |
     |   39 a       39       |   44 a       44       |  -0.09403       0.9   |
     |   40 a       40       |   61 a       61       |   0.08348       0.7   |
     |   39 a       39       |   49 a       49       |   0.08156       0.7   |
     |   40 a       40       |   52 a       52       |  -0.08019       0.6   |
     |   40 a       40       |   58 a       58       |   0.07219       0.5   |
     |   39 a       39       |   47 a       47       |  -0.07091       0.5   |
     +=======================+=======================+=======================+
     norm of printed elements:  0.90823


       Energy:     0.2473515 H      6.73078 eV    54287.369 cm-1

     +=======================================================================+
     | type: RE0                    symmetry: a               state:   13    |
     +-----------------------+-----------------------+-----------------------+
     | occ. orb.  index spin | vir. orb.  index spin |  coeff/|amp|     %    |
     +=======================+=======================+=======================+
     |   39 a       39       |   47 a       47       |   0.59396      35.3   |
     |   39 a       39       |   49 a       49       |  -0.40230      16.2   |
     |   40 a       40       |   58 a       58       |  -0.25589       6.5   |
     |   40 a       40       |   52 a       52       |   0.22971       5.3   |
     |   39 a       39       |   46 a       46       |  -0.22272       5.0   |
     |   37 a       37       |   42 a       42       |   0.20621       4.3   |
     |   40 a       40       |   55 a       55       |   0.17321       3.0   |
     |   39 a       39       |   41 a       41       |   0.16610       2.8   |
     |   39 a       39       |   52 a       52       |  -0.11306       1.3   |
     |   39 a       39       |   45 a       45       |   0.11073       1.2   |
     |   34 a       34       |   47 a       47       |  -0.10785       1.2   |
     |   40 a       40       |   42 a       42       |   0.09737       0.9   |
     |   39 a       39       |   48 a       48       |  -0.09600       0.9   |
     |   40 a       40       |   47 a       47       |   0.09546       0.9   |
     |   39 a       39       |   58 a       58       |   0.09455       0.9   |
     |   39 a       39       |   42 a       42       |   0.08784       0.8   |
     |   40 a       40       |   64 a       64       |   0.08040       0.6   |
     |   39 a       39       |   59 a       59       |  -0.07862       0.6   |
     |   40 a       40       |   59 a       59       |  -0.07649       0.6   |
     |   30 a       30       |   42 a       42       |   0.07424       0.6   |
     +=======================+=======================+=======================+
     norm of printed elements:  0.88775


       Energy:     0.2536056 H      6.90096 eV    55659.997 cm-1

     +=======================================================================+
     | type: RE0                    symmetry: a               state:   14    |
     +-----------------------+-----------------------+-----------------------+
     | occ. orb.  index spin | vir. orb.  index spin |  coeff/|amp|     %    |
     +=======================+=======================+=======================+
     |   36 a       36       |   47 a       47       |  -0.67774      45.9   |
     |   36 a       36       |   49 a       49       |   0.56695      32.1   |
     |   36 a       36       |   46 a       46       |   0.26668       7.1   |
     |   36 a       36       |   42 a       42       |  -0.20806       4.3   |
     |   36 a       36       |   45 a       45       |  -0.15169       2.3   |
     |   36 a       36       |   59 a       59       |   0.13178       1.7   |
     |   36 a       36       |   64 a       64       |  -0.08849       0.8   |
     |   36 a       36       |   62 a       62       |  -0.07517       0.6   |
     |   36 a       36       |   48 a       48       |   0.06761       0.5   |
     |   36 a       36       |   55 a       55       |  -0.06729       0.5   |
     +=======================+=======================+=======================+
     norm of printed elements:  0.95813


       Energy:     0.2620057 H      7.12954 eV    57503.602 cm-1

     +=======================================================================+
     | type: RE0                    symmetry: a               state:   15    |
     +-----------------------+-----------------------+-----------------------+
     | occ. orb.  index spin | vir. orb.  index spin |  coeff/|amp|     %    |
     +=======================+=======================+=======================+
     |   40 a       40       |   45 a       45       |   0.66607      44.4   |
     |   39 a       39       |   43 a       43       |   0.48103      23.1   |
     |   40 a       40       |   50 a       50       |   0.27338       7.5   |
     |   40 a       40       |   48 a       48       |   0.18427       3.4   |
     |   40 a       40       |   41 a       41       |   0.15981       2.6   |
     |   40 a       40       |   51 a       51       |   0.14428       2.1   |
     |   40 a       40       |   43 a       43       |   0.14272       2.0   |
     |   40 a       40       |   46 a       46       |   0.09537       0.9   |
     |   40 a       40       |   56 a       56       |  -0.08556       0.7   |
     |   37 a       37       |   45 a       45       |   0.08383       0.7   |
     |   40 a       40       |   70 a       70       |  -0.08351       0.7   |
     |   40 a       40       |   47 a       47       |  -0.08279       0.7   |
     |   39 a       39       |   41 a       41       |  -0.07595       0.6   |
     |   37 a       37       |   50 a       50       |   0.07392       0.5   |
     |   39 a       39       |   44 a       44       |   0.06789       0.5   |
     |   37 a       37       |   43 a       43       |  -0.06727       0.5   |
     |   34 a       34       |   43 a       43       |  -0.06503       0.4   |
     |   39 a       39       |   67 a       67       |  -0.06464       0.4   |
     |   39 a       39       |   56 a       56       |   0.05754       0.3   |
     |   40 a       40       |   62 a       62       |  -0.05304       0.3   |
     +=======================+=======================+=======================+
     norm of printed elements:  0.92263



     Info: copy ADC(2) right eigenvectors into left eigenvector files.


                    ========   CC DENSITY MODULE   ========

                      current wave-function model: ADC(2)  

  calculating overlap between   15 left and right vector(s)
    density nr.      cpu/min        wall/min    L     R
   ------------------------------------------------------
         1             1.08            1.14    LE0    RE0 
         2             1.08            1.14    LE0    RE0 
         3             1.08            1.16    LE0    RE0 
         4             1.08            1.14    LE0    RE0 
         5             1.08            1.22    LE0    RE0 
         6             1.08            1.12    LE0    RE0 
         7             1.08            1.13    LE0    RE0 
         8             1.08            1.15    LE0    RE0 
         9             1.08            1.15    LE0    RE0 
        10             1.08            1.12    LE0    RE0 
        11             1.08            1.16    LE0    RE0 
        12             1.07            1.12    LE0    RE0 
        13             1.08            1.15    LE0    RE0 
        14             1.08            1.13    LE0    RE0 
        15             1.08            1.12    LE0    RE0 
   ------------------------------------------------------
     time in cc_1den       cpu: 16 min  9 s  wall: 17 min 10 s  ratio:  0.9



     +==========================================================+
     |   contributions of excitation levels to excited states   |
     |     wavefunctions as computed from the <L|R> overlap     |
     +----------------------------------------------------------+
     | sym | multi | state |    E / eV  | % singles | % doubles |
     +==========================================================+
     | a   |   1   |   1   |    3.76009 |   89.74   |   10.26   |
     | a   |   1   |   2   |    4.11104 |   88.00   |   12.00   |
     | a   |   1   |   3   |    4.44462 |   90.14   |    9.86   |
     | a   |   1   |   4   |    4.64026 |   89.25   |   10.75   |
     | a   |   1   |   5   |    5.31729 |   91.71   |    8.29   |
     | a   |   1   |   6   |    5.41183 |   88.65   |   11.35   |
     | a   |   1   |   7   |    5.84339 |   91.70   |    8.30   |
     | a   |   1   |   8   |    5.98569 |   88.95   |   11.05   |
     | a   |   1   |   9   |    6.25279 |   91.13   |    8.87   |
     | a   |   1   |  10   |    6.32412 |   89.66   |   10.34   |
     | a   |   1   |  11   |    6.54609 |   91.50   |    8.50   |
     | a   |   1   |  12   |    6.66968 |   90.98   |    9.02   |
     | a   |   1   |  13   |    6.73078 |   90.27   |    9.73   |
     | a   |   1   |  14   |    6.90096 |   83.33   |   16.67   |
     | a   |   1   |  15   |    7.12954 |   91.18   |    8.82   |
     +==========================================================+



      The semi-canonical algorithm will be used for densities


                    ========   CC DENSITY MODULE   ========

                      current wave-function model: ADC(2)  

  calculating    15 xi densities

   a semicanonical algorithm will be used

    density nr.      cpu/min        wall/min    L     R
   ------------------------------------------------------
         1             1.85            2.28    LE0    R0  
         2             1.85            2.21    LE0    R0  
         3             1.85            2.15    LE0    R0  
         4             1.84            2.02    LE0    R0  
         5             1.83            2.03    LE0    R0  
         6             1.83            2.22    LE0    R0  
         7             1.84            2.01    LE0    R0  
         8             1.84            2.05    LE0    R0  
         9             1.85            2.17    LE0    R0  
        10             1.85            2.08    LE0    R0  
        11             1.86            2.06    LE0    R0  
        12             1.85            2.12    LE0    R0  
        13             1.84            2.13    LE0    R0  
        14             1.84            2.13    LE0    R0  
        15             1.85            2.18    LE0    R0  
   ------------------------------------------------------
     time in cc_1den       cpu: 27 min 40 s  wall: 31 min 50 s  ratio:  0.9


 **************************************************************
 *                                                            *
 *<<<<<<<<<<<<  ONE-PHOTON ABSORPTION STRENGTHS  >>>>>>>>>>>>>*
 *                                                            *
 **************************************************************



  +=========================================================================+
  |  Transition                                             model: ADC(2)   |
  |    number, symmetry, multiplicity:    1 a    1                          |
  |    frequency :   0.1381809203 a.u.     3.76009 e.V.     30327.2 rcm     |
  +=========================================================================+

     +-----------+-----------------+-----------------+---------------------+
     | operator  |   left moment   |  right moment   | transition strength |
     +-----------+-----------------+-----------------+---------------------+
     | xdiplen   |     -0.00890569 |     -0.00890569 |       0.00007931    |
     | ydiplen   |     -0.00134954 |     -0.00134954 |       0.00000182    |
     | zdiplen   |     -0.00026929 |     -0.00026929 |       0.00000007    |
     | xdipvel   |     -0.00122964 |      0.00122964 |       0.00000151    |
     | ydipvel   |     -0.00018388 |      0.00018388 |       0.00000003    |
     | zdipvel   |      0.00005365 |     -0.00005365 |       0.00000000    |
     | xangmom   |      0.56023614 |     -0.56023614 |       0.31386454    |
     | yangmom   |      0.07161130 |     -0.07161130 |       0.00512818    |
     | zangmom   |      0.00000169 |     -0.00000169 |       0.00000000    |
     +-----------+-----------------+-----------------+---------------------+
 
       oscillator strength (length gauge)   :      0.00000748
       oscillator strength (velocity gauge) :      0.00000747
       oscillator strength (mixed gauge)    :      0.00000746
 
       rotator strength (length gauge)      :     -0.00254297 a.u.
       Rotator strength (length gauge)      :     -1.19886459 10^(-40)*erg*cm^3
       rotator strength (velocity gauge)    :     -0.00254035 a.u.
       Rotator strength (velocity gauge)    :     -1.19763253 10^(-40)*erg*cm^3
 


  +=========================================================================+
  |  Transition                                             model: ADC(2)   |
  |    number, symmetry, multiplicity:    2 a    1                          |
  |    frequency :   0.1510778932 a.u.     4.11104 e.V.     33157.8 rcm     |
  +=========================================================================+

     +-----------+-----------------+-----------------+---------------------+
     | operator  |   left moment   |  right moment   | transition strength |
     +-----------+-----------------+-----------------+---------------------+
     | xdiplen   |     -1.85422548 |     -1.85422548 |       3.43815214    |
     | ydiplen   |     -0.33646239 |     -0.33646239 |       0.11320694    |
     | zdiplen   |     -0.01725428 |     -0.01725428 |       0.00029771    |
     | xdipvel   |     -0.27565834 |      0.27565834 |       0.07598752    |
     | ydipvel   |     -0.04612859 |      0.04612859 |       0.00212785    |
     | zdipvel   |     -0.00421873 |      0.00421873 |       0.00001780    |
     | xangmom   |     -0.00184850 |      0.00184850 |       0.00000342    |
     | yangmom   |     -0.00895340 |      0.00895340 |       0.00008016    |
     | zangmom   |     -0.06122915 |      0.06122915 |       0.00374901    |
     +-----------+-----------------+-----------------+---------------------+
 
       oscillator strength (length gauge)   :      0.35771788
       oscillator strength (velocity gauge) :      0.34478093
       oscillator strength (mixed gauge)    :      0.35115070
 
       rotator strength (length gauge)      :      0.00374824 a.u.
       Rotator strength (length gauge)      :      1.76708569 10^(-40)*erg*cm^3
       rotator strength (velocity gauge)    :      0.00390816 a.u.
       Rotator strength (velocity gauge)    :      1.84247569 10^(-40)*erg*cm^3
 


  +=========================================================================+
  |  Transition                                             model: ADC(2)   |
  |    number, symmetry, multiplicity:    3 a    1                          |
  |    frequency :   0.1633367307 a.u.     4.44462 e.V.     35848.3 rcm     |
  +=========================================================================+

     +-----------+-----------------+-----------------+---------------------+
     | operator  |   left moment   |  right moment   | transition strength |
     +-----------+-----------------+-----------------+---------------------+
     | xdiplen   |     -0.00501494 |     -0.00501494 |       0.00002515    |
     | ydiplen   |     -0.00019355 |     -0.00019355 |       0.00000004    |
     | zdiplen   |      0.06637086 |      0.06637086 |       0.00440509    |
     | xdipvel   |     -0.00077970 |      0.00077970 |       0.00000061    |
     | ydipvel   |      0.00000660 |     -0.00000660 |       0.00000000    |
     | zdipvel   |      0.01533600 |     -0.01533600 |       0.00023519    |
     | xangmom   |      0.17005475 |     -0.17005475 |       0.02891862    |
     | yangmom   |     -1.11688133 |      1.11688133 |       1.24742391    |
     | zangmom   |      0.00477382 |     -0.00477382 |       0.00002279    |
     +-----------+-----------------+-----------------+---------------------+
 
       oscillator strength (length gauge)   :      0.00048242
       oscillator strength (velocity gauge) :      0.00096243
       oscillator strength (mixed gauge)    :      0.00068118
 
       rotator strength (length gauge)      :     -0.00015990 a.u.
       Rotator strength (length gauge)      :     -0.07538445 10^(-40)*erg*cm^3
       rotator strength (velocity gauge)    :     -0.00020433 a.u.
       Rotator strength (velocity gauge)    :     -0.09632854 10^(-40)*erg*cm^3
 


  +=========================================================================+
  |  Transition                                             model: ADC(2)   |
  |    number, symmetry, multiplicity:    4 a    1                          |
  |    frequency :   0.1705265159 a.u.     4.64026 e.V.     37426.2 rcm     |
  +=========================================================================+

     +-----------+-----------------+-----------------+---------------------+
     | operator  |   left moment   |  right moment   | transition strength |
     +-----------+-----------------+-----------------+---------------------+
     | xdiplen   |      0.39117403 |      0.39117403 |       0.15301712    |
     | ydiplen   |      0.23007901 |      0.23007901 |       0.05293635    |
     | zdiplen   |      0.00724312 |      0.00724312 |       0.00005246    |
     | xdipvel   |      0.06870227 |     -0.06870227 |       0.00472000    |
     | ydipvel   |      0.04833559 |     -0.04833559 |       0.00233633    |
     | zdipvel   |      0.00213626 |     -0.00213626 |       0.00000456    |
     | xangmom   |     -0.00683278 |      0.00683278 |       0.00004669    |
     | yangmom   |      0.01962351 |     -0.01962351 |       0.00038508    |
     | zangmom   |      0.53683407 |     -0.53683407 |       0.28819082    |
     +-----------+-----------------+-----------------+---------------------+
 
       oscillator strength (length gauge)   :      0.02341965
       oscillator strength (velocity gauge) :      0.02760429
       oscillator strength (mixed gauge)    :      0.02534068
 
       rotator strength (length gauge)      :      0.00286525 a.u.
       Rotator strength (length gauge)      :      1.35080564 10^(-40)*erg*cm^3
       rotator strength (velocity gauge)    :      0.00476731 a.u.
       Rotator strength (velocity gauge)    :      2.24751648 10^(-40)*erg*cm^3
 


  +=========================================================================+
  |  Transition                                             model: ADC(2)   |
  |    number, symmetry, multiplicity:    5 a    1                          |
  |    frequency :   0.1954067552 a.u.     5.31729 e.V.     42886.8 rcm     |
  +=========================================================================+

     +-----------+-----------------+-----------------+---------------------+
     | operator  |   left moment   |  right moment   | transition strength |
     +-----------+-----------------+-----------------+---------------------+
     | xdiplen   |      0.11890015 |      0.11890015 |       0.01413725    |
     | ydiplen   |     -0.11199544 |     -0.11199544 |       0.01254298    |
     | zdiplen   |     -0.14159423 |     -0.14159423 |       0.02004893    |
     | xdipvel   |      0.02150093 |     -0.02150093 |       0.00046229    |
     | ydipvel   |     -0.01612332 |      0.01612332 |       0.00025996    |
     | zdipvel   |     -0.04607784 |      0.04607784 |       0.00212317    |
     | xangmom   |     -0.14679779 |      0.14679779 |       0.02154959    |
     | yangmom   |     -0.52537335 |      0.52537335 |       0.27601715    |
     | zangmom   |      0.06714488 |     -0.06714488 |       0.00450843    |
     +-----------+-----------------+-----------------+---------------------+
 
       oscillator strength (length gauge)   :      0.00608746
       oscillator strength (velocity gauge) :      0.00970768
       oscillator strength (mixed gauge)    :      0.00725771
 
       rotator strength (length gauge)      :      0.01593890 a.u.
       Rotator strength (length gauge)      :      7.51429401 10^(-40)*erg*cm^3
       rotator strength (velocity gauge)    :      0.00568195 a.u.
       Rotator strength (velocity gauge)    :      2.67871717 10^(-40)*erg*cm^3
 


  +=========================================================================+
  |  Transition                                             model: ADC(2)   |
  |    number, symmetry, multiplicity:    6 a    1                          |
  |    frequency :   0.1988812783 a.u.     5.41183 e.V.     43649.4 rcm     |
  +=========================================================================+

     +-----------+-----------------+-----------------+---------------------+
     | operator  |   left moment   |  right moment   | transition strength |
     +-----------+-----------------+-----------------+---------------------+
     | xdiplen   |      0.59391278 |      0.59391278 |       0.35273239    |
     | ydiplen   |     -0.50834601 |     -0.50834601 |       0.25841566    |
     | zdiplen   |      0.03651436 |      0.03651436 |       0.00133330    |
     | xdipvel   |      0.11464935 |     -0.11464935 |       0.01314447    |
     | ydipvel   |     -0.06938694 |      0.06938694 |       0.00481455    |
     | zdipvel   |      0.01129840 |     -0.01129840 |       0.00012765    |
     | xangmom   |      0.04434449 |     -0.04434449 |       0.00196643    |
     | yangmom   |      0.10311935 |     -0.10311935 |       0.01063360    |
     | zangmom   |      0.38665267 |     -0.38665267 |       0.14950029    |
     +-----------+-----------------+-----------------+---------------------+
 
       oscillator strength (length gauge)   :      0.08120738
       oscillator strength (velocity gauge) :      0.06062805
       oscillator strength (mixed gauge)    :      0.06918456
 
       rotator strength (length gauge)      :     -0.00598259 a.u.
       Rotator strength (length gauge)      :     -2.82045364 10^(-40)*erg*cm^3
       rotator strength (velocity gauge)    :      0.00577603 a.u.
       Rotator strength (velocity gauge)    :      2.72307164 10^(-40)*erg*cm^3
 


  +=========================================================================+
  |  Transition                                             model: ADC(2)   |
  |    number, symmetry, multiplicity:    7 a    1                          |
  |    frequency :   0.2147405958 a.u.     5.84339 e.V.     47130.1 rcm     |
  +=========================================================================+

     +-----------+-----------------+-----------------+---------------------+
     | operator  |   left moment   |  right moment   | transition strength |
     +-----------+-----------------+-----------------+---------------------+
     | xdiplen   |     -0.00525190 |     -0.00525190 |       0.00002758    |
     | ydiplen   |     -0.06530325 |     -0.06530325 |       0.00426451    |
     | zdiplen   |     -0.06435029 |     -0.06435029 |       0.00414096    |
     | xdipvel   |     -0.00135473 |      0.00135473 |       0.00000184    |
     | ydipvel   |     -0.01618143 |      0.01618143 |       0.00026184    |
     | zdipvel   |     -0.01536120 |      0.01536120 |       0.00023597    |
     | xangmom   |      0.12283011 |     -0.12283011 |       0.01508724    |
     | yangmom   |     -0.17311799 |      0.17311799 |       0.02996984    |
     | zangmom   |     -0.16313136 |      0.16313136 |       0.02661184    |
     +-----------+-----------------+-----------------+---------------------+
 
       oscillator strength (length gauge)   :      0.00120728
       oscillator strength (velocity gauge) :      0.00155114
       oscillator strength (mixed gauge)    :      0.00136821
 
       rotator strength (length gauge)      :      0.01057881 a.u.
       Rotator strength (length gauge)      :      4.98731309 10^(-40)*erg*cm^3
       rotator strength (velocity gauge)    :      0.01196977 a.u.
       Rotator strength (velocity gauge)    :      5.64306868 10^(-40)*erg*cm^3
 


  +=========================================================================+
  |  Transition                                             model: ADC(2)   |
  |    number, symmetry, multiplicity:    8 a    1                          |
  |    frequency :   0.2199702180 a.u.     5.98569 e.V.     48277.9 rcm     |
  +=========================================================================+

     +-----------+-----------------+-----------------+---------------------+
     | operator  |   left moment   |  right moment   | transition strength |
     +-----------+-----------------+-----------------+---------------------+
     | xdiplen   |      0.45657419 |      0.45657419 |       0.20845999    |
     | ydiplen   |     -1.24384786 |     -1.24384786 |       1.54715749    |
     | zdiplen   |      0.01726089 |      0.01726089 |       0.00029794    |
     | xdipvel   |      0.10033485 |     -0.10033485 |       0.01006708    |
     | ydipvel   |     -0.27181452 |      0.27181452 |       0.07388313    |
     | zdipvel   |      0.00460416 |     -0.00460416 |       0.00002120    |
     | xangmom   |     -0.01417393 |      0.01417393 |       0.00020090    |
     | yangmom   |      0.02431430 |     -0.02431430 |       0.00059119    |
     | zangmom   |     -1.33618265 |      1.33618265 |       1.78538407    |
     +-----------+-----------------+-----------------+---------------------+
 
       oscillator strength (length gauge)   :      0.25749940
       oscillator strength (velocity gauge) :      0.25449329
       oscillator strength (mixed gauge)    :      0.25599046
 
       rotator strength (length gauge)      :     -0.02988922 a.u.
       Rotator strength (length gauge)      :    -14.09107948 10^(-40)*erg*cm^3
       rotator strength (velocity gauge)    :     -0.03223874 a.u.
       Rotator strength (velocity gauge)    :    -15.19874424 10^(-40)*erg*cm^3
 


  +=========================================================================+
  |  Transition                                             model: ADC(2)   |
  |    number, symmetry, multiplicity:    9 a    1                          |
  |    frequency :   0.2297859099 a.u.     6.25279 e.V.     50432.2 rcm     |
  +=========================================================================+

     +-----------+-----------------+-----------------+---------------------+
     | operator  |   left moment   |  right moment   | transition strength |
     +-----------+-----------------+-----------------+---------------------+
     | xdiplen   |     -0.08480265 |     -0.08480265 |       0.00719149    |
     | ydiplen   |      0.09723277 |      0.09723277 |       0.00945421    |
     | zdiplen   |     -0.17172180 |     -0.17172180 |       0.02948838    |
     | xdipvel   |     -0.01772199 |      0.01772199 |       0.00031407    |
     | ydipvel   |      0.02441766 |     -0.02441766 |       0.00059622    |
     | zdipvel   |     -0.04408179 |      0.04408179 |       0.00194320    |
     | xangmom   |     -0.04528687 |      0.04528687 |       0.00205090    |
     | yangmom   |     -0.47507645 |      0.47507645 |       0.22569764    |
     | zangmom   |      0.05526708 |     -0.05526708 |       0.00305445    |
     +-----------+-----------------+-----------------+---------------------+
 
       oscillator strength (length gauge)   :      0.00706731
       oscillator strength (velocity gauge) :      0.00827871
       oscillator strength (mixed gauge)    :      0.00763125
 
       rotator strength (length gauge)      :     -0.02592156 a.u.
       Rotator strength (length gauge)      :    -12.22055098 10^(-40)*erg*cm^3
       rotator strength (velocity gauge)    :     -0.02879626 a.u.
       Rotator strength (velocity gauge)    :    -13.57581293 10^(-40)*erg*cm^3
 


  +=========================================================================+
  |  Transition                                             model: ADC(2)   |
  |    number, symmetry, multiplicity:   10 a    1                          |
  |    frequency :   0.2324070032 a.u.     6.32412 e.V.     51007.4 rcm     |
  +=========================================================================+

     +-----------+-----------------+-----------------+---------------------+
     | operator  |   left moment   |  right moment   | transition strength |
     +-----------+-----------------+-----------------+---------------------+
     | xdiplen   |      0.46781681 |      0.46781681 |       0.21885257    |
     | ydiplen   |     -0.31300878 |     -0.31300878 |       0.09797450    |
     | zdiplen   |     -0.06772508 |     -0.06772508 |       0.00458669    |
     | xdipvel   |      0.09092950 |     -0.09092950 |       0.00826817    |
     | ydipvel   |     -0.08538370 |      0.08538370 |       0.00729038    |
     | zdipvel   |     -0.01894155 |      0.01894155 |       0.00035878    |
     | xangmom   |      0.01100989 |     -0.01100989 |       0.00012122    |
     | yangmom   |     -0.17025153 |      0.17025153 |       0.02898558    |
     | zangmom   |     -0.09042601 |      0.09042601 |       0.00817686    |
     +-----------+-----------------+-----------------+---------------------+
 
       oscillator strength (length gauge)   :      0.04979920
       oscillator strength (velocity gauge) :      0.04565936
       oscillator strength (mixed gauge)    :      0.04703134
 
       rotator strength (length gauge)      :      0.03228247 a.u.
       Rotator strength (length gauge)      :     15.21936349 10^(-40)*erg*cm^3
       rotator strength (velocity gauge)    :      0.03711299 a.u.
       Rotator strength (velocity gauge)    :     17.49668150 10^(-40)*erg*cm^3
 


  +=========================================================================+
  |  Transition                                             model: ADC(2)   |
  |    number, symmetry, multiplicity:   11 a    1                          |
  |    frequency :   0.2405644098 a.u.     6.54609 e.V.     52797.8 rcm     |
  +=========================================================================+

     +-----------+-----------------+-----------------+---------------------+
     | operator  |   left moment   |  right moment   | transition strength |
     +-----------+-----------------+-----------------+---------------------+
     | xdiplen   |     -0.14618493 |     -0.14618493 |       0.02137003    |
     | ydiplen   |     -0.05499683 |     -0.05499683 |       0.00302465    |
     | zdiplen   |      0.00726131 |      0.00726131 |       0.00005273    |
     | xdipvel   |     -0.03086196 |      0.03086196 |       0.00095246    |
     | ydipvel   |     -0.00966362 |      0.00966362 |       0.00009339    |
     | zdipvel   |      0.00103259 |     -0.00103259 |       0.00000107    |
     | xangmom   |      0.05807263 |     -0.05807263 |       0.00337243    |
     | yangmom   |      0.14683039 |     -0.14683039 |       0.02155916    |
     | zangmom   |     -0.04124173 |      0.04124173 |       0.00170088    |
     +-----------+-----------------+-----------------+---------------------+
 
       oscillator strength (length gauge)   :      0.00392078
       oscillator strength (velocity gauge) :      0.00290127
       oscillator strength (mixed gauge)    :      0.00336701
 
       rotator strength (length gauge)      :     -0.00843201 a.u.
       Rotator strength (length gauge)      :     -3.97521673 10^(-40)*erg*cm^3
       rotator strength (velocity gauge)    :     -0.00676271 a.u.
       Rotator strength (velocity gauge)    :     -3.18823614 10^(-40)*erg*cm^3
 


  +=========================================================================+
  |  Transition                                             model: ADC(2)   |
  |    number, symmetry, multiplicity:   12 a    1                          |
  |    frequency :   0.2451061529 a.u.     6.66968 e.V.     53794.6 rcm     |
  +=========================================================================+

     +-----------+-----------------+-----------------+---------------------+
     | operator  |   left moment   |  right moment   | transition strength |
     +-----------+-----------------+-----------------+---------------------+
     | xdiplen   |      0.29780603 |      0.29780603 |       0.08868843    |
     | ydiplen   |      0.14285807 |      0.14285807 |       0.02040843    |
     | zdiplen   |     -0.00091573 |     -0.00091573 |       0.00000084    |
     | xdipvel   |      0.07030455 |     -0.07030455 |       0.00494273    |
     | ydipvel   |      0.03107009 |     -0.03107009 |       0.00096535    |
     | zdipvel   |     -0.00798478 |      0.00798478 |       0.00006376    |
     | xangmom   |      0.22520867 |     -0.22520867 |       0.05071895    |
     | yangmom   |     -0.09302223 |      0.09302223 |       0.00865314    |
     | zangmom   |      0.16722406 |     -0.16722406 |       0.02796388    |
     +-----------+-----------------+-----------------+---------------------+
 
       oscillator strength (length gauge)   :      0.01782701
       oscillator strength (velocity gauge) :      0.01624286
       oscillator strength (mixed gauge)    :      0.01692203
 
       rotator strength (length gauge)      :      0.02681320 a.u.
       Rotator strength (length gauge)      :     12.64090849 10^(-40)*erg*cm^3
       rotator strength (velocity gauge)    :      0.02367900 a.u.
       Rotator strength (velocity gauge)    :     11.16331278 10^(-40)*erg*cm^3
 


  +=========================================================================+
  |  Transition                                             model: ADC(2)   |
  |    number, symmetry, multiplicity:   13 a    1                          |
  |    frequency :   0.2473514559 a.u.     6.73078 e.V.     54287.4 rcm     |
  +=========================================================================+

     +-----------+-----------------+-----------------+---------------------+
     | operator  |   left moment   |  right moment   | transition strength |
     +-----------+-----------------+-----------------+---------------------+
     | xdiplen   |     -1.44950745 |     -1.44950745 |       2.10107184    |
     | ydiplen   |     -0.59132710 |     -0.59132710 |       0.34966774    |
     | zdiplen   |     -0.01237448 |     -0.01237448 |       0.00015313    |
     | xdipvel   |     -0.33710907 |      0.33710907 |       0.11364252    |
     | ydipvel   |     -0.12266608 |      0.12266608 |       0.01504697    |
     | zdipvel   |     -0.00715337 |      0.00715337 |       0.00005117    |
     | xangmom   |      0.03838931 |     -0.03838931 |       0.00147374    |
     | yangmom   |     -0.09817772 |      0.09817772 |       0.00963887    |
     | zangmom   |     -0.76981542 |      0.76981542 |       0.59261577    |
     +-----------+-----------------+-----------------+---------------------+
 
       oscillator strength (length gauge)   :      0.40415459
       oscillator strength (velocity gauge) :      0.34698445
       oscillator strength (mixed gauge)    :      0.37417760
 
       rotator strength (length gauge)      :      0.00596781 a.u.
       Rotator strength (length gauge)      :      2.81348497 10^(-40)*erg*cm^3
       rotator strength (velocity gauge)    :      0.00931562 a.u.
       Rotator strength (velocity gauge)    :      4.39178916 10^(-40)*erg*cm^3
 


  +=========================================================================+
  |  Transition                                             model: ADC(2)   |
  |    number, symmetry, multiplicity:   14 a    1                          |
  |    frequency :   0.2536056091 a.u.     6.90096 e.V.     55660.0 rcm     |
  +=========================================================================+

     +-----------+-----------------+-----------------+---------------------+
     | operator  |   left moment   |  right moment   | transition strength |
     +-----------+-----------------+-----------------+---------------------+
     | xdiplen   |      0.00463944 |      0.00463944 |       0.00002152    |
     | ydiplen   |     -0.00057430 |     -0.00057430 |       0.00000033    |
     | zdiplen   |     -0.02151794 |     -0.02151794 |       0.00046302    |
     | xdipvel   |      0.00131378 |     -0.00131378 |       0.00000173    |
     | ydipvel   |     -0.00045130 |      0.00045130 |       0.00000020    |
     | zdipvel   |     -0.00873316 |      0.00873316 |       0.00007627    |
     | xangmom   |      0.05169382 |     -0.05169382 |       0.00267225    |
     | yangmom   |      0.08874687 |     -0.08874687 |       0.00787601    |
     | zangmom   |     -0.00045632 |      0.00045632 |       0.00000021    |
     +-----------+-----------------+-----------------+---------------------+
 
       oscillator strength (length gauge)   :      0.00008198
       oscillator strength (velocity gauge) :      0.00020556
       oscillator strength (mixed gauge)    :      0.00012952
 
       rotator strength (length gauge)      :      0.00009934 a.u.
       Rotator strength (length gauge)      :      0.04683356 10^(-40)*erg*cm^3
       rotator strength (velocity gauge)    :      0.00006279 a.u.
       Rotator strength (velocity gauge)    :      0.02960197 10^(-40)*erg*cm^3
 


  +=========================================================================+
  |  Transition                                             model: ADC(2)   |
  |    number, symmetry, multiplicity:   15 a    1                          |
  |    frequency :   0.2620056896 a.u.     7.12954 e.V.     57503.6 rcm     |
  +=========================================================================+

     +-----------+-----------------+-----------------+---------------------+
     | operator  |   left moment   |  right moment   | transition strength |
     +-----------+-----------------+-----------------+---------------------+
     | xdiplen   |     -0.06011401 |     -0.06011401 |       0.00361369    |
     | ydiplen   |      0.02900198 |      0.02900198 |       0.00084111    |
     | zdiplen   |     -0.16851140 |     -0.16851140 |       0.02839609    |
     | xdipvel   |     -0.01670771 |      0.01670771 |       0.00027915    |
     | ydipvel   |      0.00869376 |     -0.00869376 |       0.00007558    |
     | zdipvel   |     -0.03879553 |      0.03879553 |       0.00150509    |
     | xangmom   |      0.13811042 |     -0.13811042 |       0.01907449    |
     | yangmom   |      0.21176073 |     -0.21176073 |       0.04484261    |
     | zangmom   |      0.08283660 |     -0.08283660 |       0.00686190    |
     +-----------+-----------------+-----------------+---------------------+
 
       oscillator strength (length gauge)   :      0.00573808
       oscillator strength (velocity gauge) :      0.00473227
       oscillator strength (mixed gauge)    :      0.00519600
 
       rotator strength (length gauge)      :     -0.00805990 a.u.
       Rotator strength (length gauge)      :     -3.79978824 10^(-40)*erg*cm^3
       rotator strength (velocity gauge)    :     -0.00702313 a.u.
       Rotator strength (velocity gauge)    :     -3.31101124 10^(-40)*erg*cm^3
 
 Exporting transition densities


    ------------------------------------------------------------------------
         total  cpu-time :  6 hours 16 minutes and 53 seconds
         total wall-time :  8 hours 14 minutes and 47 seconds
    ------------------------------------------------------------------------


   ****  ricc2 : all done  ****


    2023-01-26 10:19:55.254 

