 Entering Gaussian System, Link 0=g09
 Initial command:
 /apps/software//g09/l1.exe /scratch/matheusmaximo/65014.cluster.abaxnet/Gau-6435.inp -scrdir=/scratch/matheusmaximo/65014.cluster.abaxnet/
 Entering Link 1 = /apps/software//g09/l1.exe PID=      6437.
  
 Copyright (c) 1988,1990,1992,1993,1995,1998,2003,2009, Gaussian, Inc.
                  All Rights Reserved.
  
 This is part of the Gaussian(R) 09 program.  It is based on
 the Gaussian(R) 03 system (copyright 2003, Gaussian, Inc.),
 the Gaussian(R) 98 system (copyright 1998, Gaussian, Inc.),
 the Gaussian(R) 94 system (copyright 1995, Gaussian, Inc.),
 the Gaussian 92(TM) system (copyright 1992, Gaussian, Inc.),
 the Gaussian 90(TM) system (copyright 1990, Gaussian, Inc.),
 the Gaussian 88(TM) system (copyright 1988, Gaussian, Inc.),
 the Gaussian 86(TM) system (copyright 1986, Carnegie Mellon
 University), and the Gaussian 82(TM) system (copyright 1983,
 Carnegie Mellon University). Gaussian is a federally registered
 trademark of Gaussian, Inc.
  
 This software contains proprietary and confidential information,
 including trade secrets, belonging to Gaussian, Inc.
  
 This software is provided under written license and may be
 used, copied, transmitted, or stored only in accord with that
 written license.
  
 The following legend is applicable only to US Government
 contracts under FAR:
  
                    RESTRICTED RIGHTS LEGEND
  
 Use, reproduction and disclosure by the US Government is
 subject to restrictions as set forth in subparagraphs (a)
 and (c) of the Commercial Computer Software - Restricted
 Rights clause in FAR 52.227-19.
  
 Gaussian, Inc.
 340 Quinnipiac St., Bldg. 40, Wallingford CT 06492
  
  
 ---------------------------------------------------------------
 Warning -- This program may not be used in any manner that
 competes with the business of Gaussian, Inc. or will provide
 assistance to any competitor of Gaussian, Inc.  The licensee
 of this program is prohibited from giving any competitor of
 Gaussian, Inc. access to this program.  By using this program,
 the user acknowledges that Gaussian, Inc. is engaged in the
 business of creating and licensing software in the field of
 computational chemistry and represents and warrants to the
 licensee that it is not a competitor of Gaussian, Inc. and that
 it will not use this program in any manner prohibited above.
 ---------------------------------------------------------------
  

 Cite this work as:
 Gaussian 09, Revision A.02,
 M. J. Frisch, G. W. Trucks, H. B. Schlegel, G. E. Scuseria, 
 M. A. Robb, J. R. Cheeseman, G. Scalmani, V. Barone, B. Mennucci, 
 G. A. Petersson, H. Nakatsuji, M. Caricato, X. Li, H. P. Hratchian, 
 A. F. Izmaylov, J. Bloino, G. Zheng, J. L. Sonnenberg, M. Hada, 
 M. Ehara, K. Toyota, R. Fukuda, J. Hasegawa, M. Ishida, T. Nakajima, 
 Y. Honda, O. Kitao, H. Nakai, T. Vreven, J. A. Montgomery, Jr., 
 J. E. Peralta, F. Ogliaro, M. Bearpark, J. J. Heyd, E. Brothers, 
 K. N. Kudin, V. N. Staroverov, R. Kobayashi, J. Normand, 
 K. Raghavachari, A. Rendell, J. C. Burant, S. S. Iyengar, J. Tomasi, 
 M. Cossi, N. Rega, J. M. Millam, M. Klene, J. E. Knox, J. B. Cross, 
 V. Bakken, C. Adamo, J. Jaramillo, R. Gomperts, R. E. Stratmann, 
 O. Yazyev, A. J. Austin, R. Cammi, C. Pomelli, J. W. Ochterski, 
 R. L. Martin, K. Morokuma, V. G. Zakrzewski, G. A. Voth, 
 P. Salvador, J. J. Dannenberg, S. Dapprich, A. D. Daniels, 
 O. Farkas, J. B. Foresman, J. V. Ortiz, J. Cioslowski, 
 and D. J. Fox, Gaussian, Inc., Wallingford CT, 2009.
 
 ******************************************
 Gaussian 09:  EM64L-G09RevA.02 11-Jun-2009
                 7-Feb-2023 
 ******************************************
 %chk=/home/matheusmaximo/Gaussian/substituent/ccl3/ccl3_s0.chk
 ---------------------------------------------------
 # opt=tight freq cam-b3lyp/gen scf=qc int=ultrafine
 ---------------------------------------------------
 1/7=10,14=-1,18=20,19=15,26=3,38=1/1,3;
 2/9=110,12=2,17=6,18=5,40=1/2;
 3/5=7,11=2,16=1,25=1,30=1,71=1,74=-40,75=-5/1,2,3;
 4//1;
 5/5=2,8=3,38=5/8;
 6/7=2,8=2,9=2,10=2,28=1/1;
 7//1,2,3,16;
 1/7=10,14=-1,18=20,19=15/3(2);
 2/9=110/2;
 99//99;
 2/9=110/2;
 3/5=7,6=1,11=2,16=1,25=1,30=1,71=1,74=-40,75=-5,82=7/1,2,3;
 4/5=5,16=3/1;
 5/5=2,8=3,38=5/8;
 7//1,2,3,16;
 1/7=10,14=-1,18=20,19=15/3(-5);
 2/9=110/2;
 6/7=2,8=2,9=2,10=2,19=2,28=1/1;
 99/9=1/99;
 ----------------------------
 NA+ccl3 CAM-B3LYP def2-TZVPD
 ----------------------------
 Symbolic Z-matrix:
 Charge =  0 Multiplicity = 1
 C                    -1.22053  -0.18724   0. 
 C                    -0.38069  -1.29017   0.00057 
 C                    -0.88266  -2.57771   0.00147 
 C                    -2.247    -2.77352  -0.00062 
 C                    -3.12908  -1.69168  -0.00335 
 C                    -2.56677  -0.41276  -0.00157 
 H                    -0.82374   0.81635   0.00313 
 H                    -0.19893  -3.41243   0.00321 
 H                    -2.64765  -3.77872  -0.00463 
 N                     1.06034  -1.0779    0.00311 
 O                     1.77791  -2.05813   0.00628 
 O                     1.46377   0.06835   0.00219 
 N                    -4.48492  -1.83918  -0.04298 
 H                    -4.88143  -2.73312   0.18331 
 H                    -5.05725  -1.03465   0.14282 
 C                    -3.54312   0.77815   0.0057 
 Cl                   -4.53799   0.71231   1.45604 
 Cl                   -4.57519   0.69934  -1.41775 
 Cl                   -2.63202   2.28386  -0.01289 
 

 GradGradGradGradGradGradGradGradGradGradGradGradGradGradGradGradGradGrad
 Berny optimization.
 Initialization pass.
                           ----------------------------
                           !    Initial Parameters    !
                           ! (Angstroms and Degrees)  !
 --------------------------                            --------------------------
 ! Name  Definition              Value          Derivative Info.                !
 --------------------------------------------------------------------------------
 ! R1    R(1,2)                  1.3863         estimate D2E/DX2                !
 ! R2    R(1,6)                  1.365          estimate D2E/DX2                !
 ! R3    R(1,7)                  1.0792         estimate D2E/DX2                !
 ! R4    R(2,3)                  1.3819         estimate D2E/DX2                !
 ! R5    R(2,10)                 1.4566         estimate D2E/DX2                !
 ! R6    R(3,4)                  1.3783         estimate D2E/DX2                !
 ! R7    R(3,8)                  1.079          estimate D2E/DX2                !
 ! R8    R(4,5)                  1.3959         estimate D2E/DX2                !
 ! R9    R(4,9)                  1.0821         estimate D2E/DX2                !
 ! R10   R(5,6)                  1.3971         estimate D2E/DX2                !
 ! R11   R(5,13)                 1.3644         estimate D2E/DX2                !
 ! R12   R(6,16)                 1.54           estimate D2E/DX2                !
 ! R13   R(10,11)                1.2148         estimate D2E/DX2                !
 ! R14   R(10,12)                1.2152         estimate D2E/DX2                !
 ! R15   R(13,14)                1.0038         estimate D2E/DX2                !
 ! R16   R(13,15)                1.0047         estimate D2E/DX2                !
 ! R17   R(16,17)                1.76           estimate D2E/DX2                !
 ! R18   R(16,18)                1.76           estimate D2E/DX2                !
 ! R19   R(16,19)                1.76           estimate D2E/DX2                !
 ! A1    A(2,1,6)              117.7778         estimate D2E/DX2                !
 ! A2    A(2,1,7)              121.1396         estimate D2E/DX2                !
 ! A3    A(6,1,7)              121.0824         estimate D2E/DX2                !
 ! A4    A(1,2,3)              121.4129         estimate D2E/DX2                !
 ! A5    A(1,2,10)             118.9081         estimate D2E/DX2                !
 ! A6    A(3,2,10)             119.6789         estimate D2E/DX2                !
 ! A7    A(2,3,4)              119.4666         estimate D2E/DX2                !
 ! A8    A(2,3,8)              119.3791         estimate D2E/DX2                !
 ! A9    A(4,3,8)              121.1542         estimate D2E/DX2                !
 ! A10   A(3,4,5)              121.0249         estimate D2E/DX2                !
 ! A11   A(3,4,9)              119.8986         estimate D2E/DX2                !
 ! A12   A(5,4,9)              119.076          estimate D2E/DX2                !
 ! A13   A(4,5,6)              117.0738         estimate D2E/DX2                !
 ! A14   A(4,5,13)             122.972          estimate D2E/DX2                !
 ! A15   A(6,5,13)             119.9306         estimate D2E/DX2                !
 ! A16   A(1,6,5)              123.2437         estimate D2E/DX2                !
 ! A17   A(1,6,16)             119.8355         estimate D2E/DX2                !
 ! A18   A(5,6,16)             116.9201         estimate D2E/DX2                !
 ! A19   A(2,10,11)            117.826          estimate D2E/DX2                !
 ! A20   A(2,10,12)            117.769          estimate D2E/DX2                !
 ! A21   A(11,10,12)           124.405          estimate D2E/DX2                !
 ! A22   A(5,13,14)            118.8327         estimate D2E/DX2                !
 ! A23   A(5,13,15)            118.3046         estimate D2E/DX2                !
 ! A24   A(14,13,15)           116.5164         estimate D2E/DX2                !
 ! A25   A(6,16,17)            109.4712         estimate D2E/DX2                !
 ! A26   A(6,16,18)            109.4712         estimate D2E/DX2                !
 ! A27   A(6,16,19)            109.4712         estimate D2E/DX2                !
 ! A28   A(17,16,18)           109.4713         estimate D2E/DX2                !
 ! A29   A(17,16,19)           109.4712         estimate D2E/DX2                !
 ! A30   A(18,16,19)           109.4712         estimate D2E/DX2                !
 ! D1    D(6,1,2,3)             -0.0914         estimate D2E/DX2                !
 ! D2    D(6,1,2,10)          -179.9605         estimate D2E/DX2                !
 ! D3    D(7,1,2,3)            179.7621         estimate D2E/DX2                !
 ! D4    D(7,1,2,10)            -0.107          estimate D2E/DX2                !
 ! D5    D(2,1,6,5)             -0.0365         estimate D2E/DX2                !
 ! D6    D(2,1,6,16)           179.6588         estimate D2E/DX2                !
 ! D7    D(7,1,6,5)           -179.89           estimate D2E/DX2                !
 ! D8    D(7,1,6,16)            -0.1948         estimate D2E/DX2                !
 ! D9    D(1,2,3,4)              0.116          estimate D2E/DX2                !
 ! D10   D(1,2,3,8)           -179.9196         estimate D2E/DX2                !
 ! D11   D(10,2,3,4)           179.9841         estimate D2E/DX2                !
 ! D12   D(10,2,3,8)            -0.0515         estimate D2E/DX2                !
 ! D13   D(1,2,10,11)          179.8556         estimate D2E/DX2                !
 ! D14   D(1,2,10,12)           -0.1305         estimate D2E/DX2                !
 ! D15   D(3,2,10,11)           -0.0158         estimate D2E/DX2                !
 ! D16   D(3,2,10,12)          179.9981         estimate D2E/DX2                !
 ! D17   D(2,3,4,5)             -0.013          estimate D2E/DX2                !
 ! D18   D(2,3,4,9)            179.7128         estimate D2E/DX2                !
 ! D19   D(8,3,4,5)           -179.9767         estimate D2E/DX2                !
 ! D20   D(8,3,4,9)             -0.2509         estimate D2E/DX2                !
 ! D21   D(3,4,5,6)             -0.1061         estimate D2E/DX2                !
 ! D22   D(3,4,5,13)           178.1226         estimate D2E/DX2                !
 ! D23   D(9,4,5,6)           -179.8341         estimate D2E/DX2                !
 ! D24   D(9,4,5,13)            -1.6054         estimate D2E/DX2                !
 ! D25   D(4,5,6,1)              0.133          estimate D2E/DX2                !
 ! D26   D(4,5,6,16)          -179.5704         estimate D2E/DX2                !
 ! D27   D(13,5,6,1)          -178.1523         estimate D2E/DX2                !
 ! D28   D(13,5,6,16)            2.1442         estimate D2E/DX2                !
 ! D29   D(4,5,13,14)           16.8153         estimate D2E/DX2                !
 ! D30   D(4,5,13,15)          167.8967         estimate D2E/DX2                !
 ! D31   D(6,5,13,14)         -165.0047         estimate D2E/DX2                !
 ! D32   D(6,5,13,15)          -13.9232         estimate D2E/DX2                !
 ! D33   D(1,6,16,17)         -119.0318         estimate D2E/DX2                !
 ! D34   D(1,6,16,18)          120.9682         estimate D2E/DX2                !
 ! D35   D(1,6,16,19)            0.9682         estimate D2E/DX2                !
 ! D36   D(5,6,16,17)           60.6823         estimate D2E/DX2                !
 ! D37   D(5,6,16,18)          -59.3177         estimate D2E/DX2                !
 ! D38   D(5,6,16,19)         -179.3177         estimate D2E/DX2                !
 --------------------------------------------------------------------------------
 Trust Radius=3.00D-01 FncErr=1.00D-07 GrdErr=1.00D-06
 Number of steps in this run=  97 maximum allowed number of steps= 114.
 GradGradGradGradGradGradGradGradGradGradGradGradGradGradGradGradGradGrad

                          Input orientation:                          
 ---------------------------------------------------------------------
 Center     Atomic      Atomic             Coordinates (Angstroms)
 Number     Number       Type             X           Y           Z
 ---------------------------------------------------------------------
      1          6           0       -1.220527   -0.187240    0.000000
      2          6           0       -0.380691   -1.290173    0.000568
      3          6           0       -0.882663   -2.577709    0.001469
      4          6           0       -2.246998   -2.773521   -0.000618
      5          6           0       -3.129076   -1.691685   -0.003354
      6          6           0       -2.566768   -0.412762   -0.001566
      7          1           0       -0.823736    0.816351    0.003132
      8          1           0       -0.198927   -3.412431    0.003210
      9          1           0       -2.647648   -3.778721   -0.004632
     10          7           0        1.060345   -1.077902    0.003115
     11          8           0        1.777910   -2.058131    0.006279
     12          8           0        1.463767    0.068353    0.002190
     13          7           0       -4.484923   -1.839175   -0.042981
     14          1           0       -4.881426   -2.733122    0.183307
     15          1           0       -5.057252   -1.034648    0.142822
     16          6           0       -3.543122    0.778153    0.005700
     17         17           0       -4.537993    0.712306    1.456044
     18         17           0       -4.575191    0.699343   -1.417755
     19         17           0       -2.632017    2.283856   -0.012885
 ---------------------------------------------------------------------
                    Distance matrix (angstroms):
                    1          2          3          4          5
     1  C    0.000000
     2  C    1.386285   0.000000
     3  C    2.414228   1.381929   0.000000
     4  C    2.782533   2.383993   1.378316   0.000000
     5  C    2.430211   2.777562   2.414836   1.395865   0.000000
     6  C    1.365001   2.355587   2.742848   2.382317   1.397081
     7  H    1.079189   2.152612   3.394572   3.861718   3.406593
     8  H    3.383125   2.130029   1.079008   2.145417   3.398056
     9  H    3.864639   3.366303   2.134863   1.082111   2.141844
    10  N    2.448605   1.456588   2.454527   3.716672   4.234149
    11  O    3.534246   2.291145   2.710836   4.087996   4.920659
    12  O    2.696436   2.290768   3.536578   4.673974   4.918533
    13  N    3.658827   4.141017   3.677456   2.425511   1.364421
    14  H    4.462880   4.729917   4.005912   2.641150   2.046990
    15  H    3.931788   4.685697   4.452888   3.307836   2.042285
    16  C    2.515247   3.778753   4.282508   3.780789   2.504319
    17  Cl   3.732938   4.838542   5.128491   4.418315   3.145482
    18  Cl   3.748310   4.854240   5.136928   4.414696   3.131899
    19  Cl   2.845836   4.224018   5.166745   5.072026   4.006505
                    6          7          8          9         10
     6  C    0.000000
     7  H    2.132816   0.000000
     8  H    3.821610   4.274691   0.000000
     9  H    3.366932   4.943825   2.475977   0.000000
    10  N    3.687598   2.671695   2.652506   4.587341   0.000000
    11  O    4.645807   3.877011   2.396251   4.748274   1.214808
    12  O    4.059150   2.406693   3.857513   5.630609   1.215175
    13  N    2.390750   4.523078   4.565854   2.671870   5.597468
    14  H    3.282665   5.394078   4.734944   2.473533   6.170646
    15  H    2.571012   4.622593   5.410791   3.654842   6.119345
    16  C    1.540000   2.719656   5.361403   4.644037   4.963553
    17  Cl   2.697431   3.989672   6.160492   5.086875   6.054521
    18  Cl   2.697431   4.013232   6.170698   5.075962   6.077560
    19  Cl   2.697431   2.328885   6.194180   6.062602   4.993516
                   11         12         13         14         15
    11  O    0.000000
    12  O    2.149567   0.000000
    13  N    6.266852   6.247209   0.000000
    14  H    6.695798   6.938483   1.003774   0.000000
    15  H    6.912713   6.615140   1.004663   1.708030   0.000000
    16  C    6.029750   5.056953   2.782043   3.761868   2.365933
    17  Cl   7.047536   6.208823   2.959720   3.689008   2.246337
    18  Cl   7.070603   6.235656   2.888291   3.799867   2.382122
    19  Cl   6.188753   4.656622   4.520349   5.501672   4.113208
                   16         17         18         19
    16  C    0.000000
    17  Cl   1.760000   0.000000
    18  Cl   1.760000   2.874069   0.000000
    19  Cl   1.760000   2.874068   2.874068   0.000000
 Stoichiometry    C7H5Cl3N2O2
 Framework group  C1[X(C7H5Cl3N2O2)]
 Deg. of freedom    51
 Full point group                 C1      NOp   1
 Largest Abelian subgroup         C1      NOp   1
 Largest concise Abelian subgroup C1      NOp   1
                         Standard orientation:                         
 ---------------------------------------------------------------------
 Center     Atomic      Atomic             Coordinates (Angstroms)
 Number     Number       Type             X           Y           Z
 ---------------------------------------------------------------------
      1          6           0       -0.966430   -0.498238   -0.004387
      2          6           0       -2.179020    0.173634   -0.003819
      3          6           0       -2.237442    1.554327   -0.002919
      4          6           0       -1.067161    2.282471   -0.005005
      5          6           0        0.175614    1.646907   -0.007741
      6          6           0        0.175333    0.249827   -0.005954
      7          1           0       -0.925947   -1.576662   -0.001255
      8          1           0       -3.199218    2.043450   -0.001178
      9          1           0       -1.104759    3.363921   -0.009019
     10          7           0       -3.412899   -0.600435   -0.001273
     11          8           0       -4.464184    0.008292    0.001891
     12          8           0       -3.321092   -1.812137   -0.002197
     13          7           0        1.357564    2.327398   -0.047368
     14          1           0        1.360927    3.305327    0.178920
     15          1           0        2.205200    1.821099    0.138434
     16          6           0        1.548302   -0.447672    0.001312
     17         17           0        2.432621    0.012852    1.451656
     18         17           0        2.461461    0.039685   -1.422142
     19         17           0        1.319929   -2.192693   -0.017273
 ---------------------------------------------------------------------
 Rotational constants (GHZ):      0.8303045      0.3372107      0.2779314
 General basis read from cards:  (5D, 7F)
 There are   596 symmetry adapted basis functions of A   symmetry.
 Integral buffers will be    131072 words long.
 Raffenetti 2 integral format.
 Two-electron integral symmetry is turned on.
   596 basis functions,   936 primitive gaussians,   680 cartesian basis functions
    64 alpha electrons       64 beta electrons
       nuclear repulsion energy      1258.2751748756 Hartrees.
 NAtoms=   19 NActive=   19 NUniq=   19 SFac= 7.50D-01 NAtFMM=   80 NAOKFM=F Big=F
 One-electron integrals computed using PRISM.
 NBasis=   596 RedAO= T  NBF=   596
 NBsUse=   593 1.00D-06 NBFU=   593
 Harris functional with IExCor=20419 diagonalized for initial guess.
 ExpMin= 3.54D-02 ExpMax= 6.95D+04 ExpMxC= 2.37D+03 IAcc=3 IRadAn=         5 AccDes= 0.00D+00
 HarFok:  IExCor=20419 AccDes= 0.00D+00 IRadAn=         5 IDoV= 1
 ScaDFX=  1.000000  1.000000  1.000000  1.000000
 FoFCou: FMM=F IPFlag=           0 FMFlag=      100000 FMFlg1=           0
         NFxFlg=           0 DoJE=T BraDBF=F KetDBF=T FulRan=T
         Omega=  0.000000  0.000000  1.000000  0.000000  0.000000 ICntrl=     500 IOpCl=  0
         NMat0=    1 NMatS0=    1 NMatT0=    0 NMatD0=    1 NMtDS0=    0 NMtDT0=    0
         I1Cent=           4 NGrid=           0.
 Petite list used in FoFCou.
 Initial guess orbital symmetries:
       Occupied  (A) (A) (A) (A) (A) (A) (A) (A) (A) (A) (A) (A)
                 (A) (A) (A) (A) (A) (A) (A) (A) (A) (A) (A) (A)
                 (A) (A) (A) (A) (A) (A) (A) (A) (A) (A) (A) (A)
                 (A) (A) (A) (A) (A) (A) (A) (A) (A) (A) (A) (A)
                 (A) (A) (A) (A) (A) (A) (A) (A) (A) (A) (A) (A)
                 (A) (A) (A) (A)
       Virtual   (A) (A) (A) (A) (A) (A) (A) (A) (A) (A) (A) (A)
                 (A) (A) (A) (A) (A) (A) (A) (A) (A) (A) (A) (A)
                 (A) (A) (A) (A) (A) (A) (A) (A) (A) (A) (A) (A)
                 (A) (A) (A) (A) (A) (A) (A) (A) (A) (A) (A) (A)
                 (A) (A) (A) (A) (A) (A) (A) (A) (A) (A) (A) (A)
                 (A) (A) (A) (A) (A) (A) (A) (A) (A) (A) (A) (A)
                 (A) (A) (A) (A) (A) (A) (A) (A) (A) (A) (A) (A)
                 (A) (A) (A) (A) (A) (A) (A) (A) (A) (A) (A) (A)
                 (A) (A) (A) (A) (A) (A) (A) (A) (A) (A) (A) (A)
                 (A) (A) (A) (A) (A) (A) (A) (A) (A) (A) (A) (A)
                 (A) (A) (A) (A) (A) (A) (A) (A) (A) (A) (A) (A)
                 (A) (A) (A) (A) (A) (A) (A) (A) (A) (A) (A) (A)
                 (A) (A) (A) (A) (A) (A) (A) (A) (A) (A) (A) (A)
                 (A) (A) (A) (A) (A) (A) (A) (A) (A) (A) (A) (A)
                 (A) (A) (A) (A) (A) (A) (A) (A) (A) (A) (A) (A)
                 (A) (A) (A) (A) (A) (A) (A) (A) (A) (A) (A) (A)
                 (A) (A) (A) (A) (A) (A) (A) (A) (A) (A) (A) (A)
                 (A) (A) (A) (A) (A) (A) (A) (A) (A) (A) (A) (A)
                 (A) (A) (A) (A) (A) (A) (A) (A) (A) (A) (A) (A)
                 (A) (A) (A) (A) (A) (A) (A) (A) (A) (A) (A) (A)
                 (A) (A) (A) (A) (A) (A) (A) (A) (A) (A) (A) (A)
                 (A) (A) (A) (A) (A) (A) (A) (A) (A) (A) (A) (A)
                 (A) (A) (A) (A) (A) (A) (A) (A) (A) (A) (A) (A)
                 (A) (A) (A) (A) (A) (A) (A) (A) (A) (A) (A) (A)
                 (A) (A) (A) (A) (A) (A) (A) (A) (A) (A) (A) (A)
                 (A) (A) (A) (A) (A) (A) (A) (A) (A) (A) (A) (A)
                 (A) (A) (A) (A) (A) (A) (A) (A) (A) (A) (A) (A)
                 (A) (A) (A) (A) (A) (A) (A) (A) (A) (A) (A) (A)
                 (A) (A) (A) (A) (A) (A) (A) (A) (A) (A) (A) (A)
                 (A) (A) (A) (A) (A) (A) (A) (A) (A) (A) (A) (A)
                 (A) (A) (A) (A) (A) (A) (A) (A) (A) (A) (A) (A)
                 (A) (A) (A) (A) (A) (A) (A) (A) (A) (A) (A) (A)
                 (A) (A) (A) (A) (A) (A) (A) (A) (A) (A) (A) (A)
                 (A) (A) (A) (A) (A) (A) (A) (A) (A) (A) (A) (A)
                 (A) (A) (A) (A) (A) (A) (A) (A) (A) (A) (A) (A)
                 (A) (A) (A) (A) (A) (A) (A) (A) (A) (A) (A) (A)
                 (A) (A) (A) (A) (A) (A) (A) (A) (A) (A) (A) (A)
                 (A) (A) (A) (A) (A) (A) (A) (A) (A) (A) (A) (A)
                 (A) (A) (A) (A) (A) (A) (A) (A) (A) (A) (A) (A)
                 (A) (A) (A) (A) (A) (A) (A) (A) (A) (A) (A) (A)
                 (A) (A) (A) (A) (A) (A) (A) (A) (A) (A) (A) (A)
                 (A) (A) (A) (A) (A) (A) (A) (A) (A) (A) (A) (A)
                 (A) (A) (A) (A) (A) (A) (A) (A) (A) (A) (A) (A)
                 (A) (A) (A) (A) (A) (A) (A) (A) (A) (A) (A) (A)
                 (A)
 The electronic state of the initial guess is 1-A.
 FoFJK:  IHMeth= 1 ICntrl=     0 DoSepK=T KAlg= 1 I1Cent= 0 FoldK=F
 Gradient too large for Newton-Raphson -- use scaled steepest descent instead.
 FoFJK:  IHMeth= 1 ICntrl=     0 DoSepK=T KAlg= 1 I1Cent= 0 FoldK=F
 FoFJK:  IHMeth= 1 ICntrl=     0 DoSepK=T KAlg= 1 I1Cent= 0 FoldK=F
 FoFJK:  IHMeth= 1 ICntrl=     0 DoSepK=T KAlg= 1 I1Cent= 0 FoldK=F
 FoFJK:  IHMeth= 1 ICntrl=     0 DoSepK=T KAlg= 1 I1Cent= 0 FoldK=F
 FoFJK:  IHMeth= 1 ICntrl=     0 DoSepK=T KAlg= 1 I1Cent= 0 FoldK=F
 Gradient too large for Newton-Raphson -- use scaled steepest descent instead.
 FoFJK:  IHMeth= 1 ICntrl=     0 DoSepK=T KAlg= 1 I1Cent= 0 FoldK=F
 FoFJK:  IHMeth= 1 ICntrl=     0 DoSepK=T KAlg= 1 I1Cent= 0 FoldK=F
 FoFJK:  IHMeth= 1 ICntrl=     0 DoSepK=T KAlg= 1 I1Cent= 0 FoldK=F
 Gradient too large for Newton-Raphson -- use scaled steepest descent instead.
 FoFJK:  IHMeth= 1 ICntrl=     0 DoSepK=T KAlg= 1 I1Cent= 0 FoldK=F
 FoFJK:  IHMeth= 1 ICntrl=     0 DoSepK=T KAlg= 1 I1Cent= 0 FoldK=F
 FoFJK:  IHMeth= 1 ICntrl=     0 DoSepK=T KAlg= 1 I1Cent= 0 FoldK=F
 Gradient too large for Newton-Raphson -- use scaled steepest descent instead.
 FoFJK:  IHMeth= 1 ICntrl=     0 DoSepK=T KAlg= 1 I1Cent= 0 FoldK=F
 FoFJK:  IHMeth= 1 ICntrl=     0 DoSepK=T KAlg= 1 I1Cent= 0 FoldK=F
 FoFJK:  IHMeth= 1 ICntrl=     0 DoSepK=T KAlg= 1 I1Cent= 0 FoldK=F
 Gradient too large for Newton-Raphson -- use scaled steepest descent instead.
 FoFJK:  IHMeth= 1 ICntrl=     0 DoSepK=T KAlg= 1 I1Cent= 0 FoldK=F
 FoFJK:  IHMeth= 1 ICntrl=     0 DoSepK=T KAlg= 1 I1Cent= 0 FoldK=F
 FoFJK:  IHMeth= 1 ICntrl=     0 DoSepK=T KAlg= 1 I1Cent= 0 FoldK=F
 Gradient too large for Newton-Raphson -- use scaled steepest descent instead.
 FoFJK:  IHMeth= 1 ICntrl=     0 DoSepK=T KAlg= 1 I1Cent= 0 FoldK=F
 FoFJK:  IHMeth= 1 ICntrl=     0 DoSepK=T KAlg= 1 I1Cent= 0 FoldK=F
 FoFJK:  IHMeth= 1 ICntrl=     0 DoSepK=T KAlg= 1 I1Cent= 0 FoldK=F
 LinEq1:  Iter=  0 NonCon=     1 RMS=4.73D-05 Max=3.63D-03
 AX will form     1 AO Fock derivatives at one time.
 FoFJK:  IHMeth= 1 ICntrl=     0 DoSepK=T KAlg= 1 I1Cent= 0 FoldK=F
 LinEq1:  Iter=  1 NonCon=     1 RMS=4.98D-05 Max=5.23D-03
 FoFJK:  IHMeth= 1 ICntrl=     0 DoSepK=T KAlg= 1 I1Cent= 0 FoldK=F
 LinEq1:  Iter=  2 NonCon=     1 RMS=1.49D-05 Max=1.40D-03
 FoFJK:  IHMeth= 1 ICntrl=     0 DoSepK=T KAlg= 1 I1Cent= 0 FoldK=F
 LinEq1:  Iter=  3 NonCon=     1 RMS=1.23D-05 Max=5.65D-04
 FoFJK:  IHMeth= 1 ICntrl=     0 DoSepK=T KAlg= 1 I1Cent= 0 FoldK=F
 LinEq1:  Iter=  4 NonCon=     1 RMS=2.71D-06 Max=1.25D-04
 FoFJK:  IHMeth= 1 ICntrl=     0 DoSepK=T KAlg= 1 I1Cent= 0 FoldK=F
 LinEq1:  Iter=  5 NonCon=     1 RMS=2.04D-06 Max=1.38D-04
 FoFJK:  IHMeth= 1 ICntrl=     0 DoSepK=T KAlg= 1 I1Cent= 0 FoldK=F
 LinEq1:  Iter=  6 NonCon=     1 RMS=6.75D-07 Max=3.77D-05
 FoFJK:  IHMeth= 1 ICntrl=     0 DoSepK=T KAlg= 1 I1Cent= 0 FoldK=F
 LinEq1:  Iter=  7 NonCon=     1 RMS=4.41D-07 Max=2.07D-05
 FoFJK:  IHMeth= 1 ICntrl=     0 DoSepK=T KAlg= 1 I1Cent= 0 FoldK=F
 LinEq1:  Iter=  8 NonCon=     1 RMS=1.38D-07 Max=7.95D-06
 FoFJK:  IHMeth= 1 ICntrl=     0 DoSepK=T KAlg= 1 I1Cent= 0 FoldK=F
 LinEq1:  Iter=  9 NonCon=     1 RMS=8.82D-08 Max=4.54D-06
 FoFJK:  IHMeth= 1 ICntrl=     0 DoSepK=T KAlg= 1 I1Cent= 0 FoldK=F
 LinEq1:  Iter= 10 NonCon=     1 RMS=2.53D-08 Max=1.26D-06
 FoFJK:  IHMeth= 1 ICntrl=     0 DoSepK=T KAlg= 1 I1Cent= 0 FoldK=F
 LinEq1:  Iter= 11 NonCon=     1 RMS=1.73D-08 Max=1.15D-06
 FoFJK:  IHMeth= 1 ICntrl=     0 DoSepK=T KAlg= 1 I1Cent= 0 FoldK=F
 LinEq1:  Iter= 12 NonCon=     1 RMS=6.36D-09 Max=3.00D-07
 FoFJK:  IHMeth= 1 ICntrl=     0 DoSepK=T KAlg= 1 I1Cent= 0 FoldK=F
 LinEq1:  Iter= 13 NonCon=     0 RMS=2.31D-09 Max=1.12D-07
 Linear equations converged to 2.602D-08 2.602D-07 after    13 iterations.
 FoFJK:  IHMeth= 1 ICntrl=     0 DoSepK=T KAlg= 1 I1Cent= 0 FoldK=F
 FoFJK:  IHMeth= 1 ICntrl=     0 DoSepK=T KAlg= 1 I1Cent= 0 FoldK=F
 FoFJK:  IHMeth= 1 ICntrl=     0 DoSepK=T KAlg= 1 I1Cent= 0 FoldK=F
 LinEq1:  Iter=  0 NonCon=     1 RMS=2.84D-07 Max=1.84D-05
 FoFJK:  IHMeth= 1 ICntrl=     0 DoSepK=T KAlg= 1 I1Cent= 0 FoldK=F
 LinEq1:  Iter=  1 NonCon=     1 RMS=1.31D-07 Max=7.13D-06
 FoFJK:  IHMeth= 1 ICntrl=     0 DoSepK=T KAlg= 1 I1Cent= 0 FoldK=F
 LinEq1:  Iter=  2 NonCon=     1 RMS=3.88D-08 Max=1.82D-06
 FoFJK:  IHMeth= 1 ICntrl=     0 DoSepK=T KAlg= 1 I1Cent= 0 FoldK=F
 LinEq1:  Iter=  3 NonCon=     1 RMS=2.59D-08 Max=1.45D-06
 FoFJK:  IHMeth= 1 ICntrl=     0 DoSepK=T KAlg= 1 I1Cent= 0 FoldK=F
 LinEq1:  Iter=  4 NonCon=     1 RMS=1.43D-08 Max=8.12D-07
 FoFJK:  IHMeth= 1 ICntrl=     0 DoSepK=T KAlg= 1 I1Cent= 0 FoldK=F
 LinEq1:  Iter=  5 NonCon=     1 RMS=7.45D-09 Max=5.03D-07
 FoFJK:  IHMeth= 1 ICntrl=     0 DoSepK=T KAlg= 1 I1Cent= 0 FoldK=F
 LinEq1:  Iter=  6 NonCon=     1 RMS=4.07D-09 Max=2.52D-07
 FoFJK:  IHMeth= 1 ICntrl=     0 DoSepK=T KAlg= 1 I1Cent= 0 FoldK=F
 LinEq1:  Iter=  7 NonCon=     1 RMS=2.92D-09 Max=1.82D-07
 FoFJK:  IHMeth= 1 ICntrl=     0 DoSepK=T KAlg= 1 I1Cent= 0 FoldK=F
 LinEq1:  Iter=  8 NonCon=     1 RMS=2.54D-09 Max=2.31D-07
 FoFJK:  IHMeth= 1 ICntrl=     0 DoSepK=T KAlg= 1 I1Cent= 0 FoldK=F
 LinEq1:  Iter=  9 NonCon=     1 RMS=1.10D-09 Max=6.46D-08
 FoFJK:  IHMeth= 1 ICntrl=     0 DoSepK=T KAlg= 1 I1Cent= 0 FoldK=F
 LinEq1:  Iter= 10 NonCon=     1 RMS=6.36D-10 Max=2.90D-08
 FoFJK:  IHMeth= 1 ICntrl=     0 DoSepK=T KAlg= 1 I1Cent= 0 FoldK=F
 LinEq1:  Iter= 11 NonCon=     1 RMS=3.41D-10 Max=1.33D-08
 FoFJK:  IHMeth= 1 ICntrl=     0 DoSepK=T KAlg= 1 I1Cent= 0 FoldK=F
 LinEq1:  Iter= 12 NonCon=     1 RMS=1.76D-10 Max=8.01D-09
 FoFJK:  IHMeth= 1 ICntrl=     0 DoSepK=T KAlg= 1 I1Cent= 0 FoldK=F
 LinEq1:  Iter= 13 NonCon=     0 RMS=7.86D-11 Max=3.01D-09
 Linear equations converged to 5.989D-10 5.989D-09 after    13 iterations.
 FoFJK:  IHMeth= 1 ICntrl=     0 DoSepK=T KAlg= 1 I1Cent= 0 FoldK=F
 SCF Done:  E(RCAM-B3LYP) =  -1910.24335106     a.u. after    9 cycles
            Convg  =    0.5054D-08                    51 Fock formations.
              S**2 =  0.0000                  -V/T =  2.0020

 **********************************************************************

            Population analysis using the SCF density.

 **********************************************************************

 Orbital symmetries:
       Occupied  (A) (A) (A) (A) (A) (A) (A) (A) (A) (A) (A) (A)
                 (A) (A) (A) (A) (A) (A) (A) (A) (A) (A) (A) (A)
                 (A) (A) (A) (A) (A) (A) (A) (A) (A) (A) (A) (A)
                 (A) (A) (A) (A) (A) (A) (A) (A) (A) (A) (A) (A)
                 (A) (A) (A) (A) (A) (A) (A) (A) (A) (A) (A) (A)
                 (A) (A) (A) (A)
       Virtual   (A) (A) (A) (A) (A) (A) (A) (A) (A) (A) (A) (A)
                 (A) (A) (A) (A) (A) (A) (A) (A) (A) (A) (A) (A)
                 (A) (A) (A) (A) (A) (A) (A) (A) (A) (A) (A) (A)
                 (A) (A) (A) (A) (A) (A) (A) (A) (A) (A) (A) (A)
                 (A) (A) (A) (A) (A) (A) (A) (A) (A) (A) (A) (A)
                 (A) (A) (A) (A) (A) (A) (A) (A) (A) (A) (A) (A)
                 (A) (A) (A) (A) (A) (A) (A) (A) (A) (A) (A) (A)
                 (A) (A) (A) (A) (A) (A) (A) (A) (A) (A) (A) (A)
                 (A) (A) (A) (A) (A) (A) (A) (A) (A) (A) (A) (A)
                 (A) (A) (A) (A) (A) (A) (A) (A) (A) (A) (A) (A)
                 (A) (A) (A) (A) (A) (A) (A) (A) (A) (A) (A) (A)
                 (A) (A) (A) (A) (A) (A) (A) (A) (A) (A) (A) (A)
                 (A) (A) (A) (A) (A) (A) (A) (A) (A) (A) (A) (A)
                 (A) (A) (A) (A) (A) (A) (A) (A) (A) (A) (A) (A)
                 (A) (A) (A) (A) (A) (A) (A) (A) (A) (A) (A) (A)
                 (A) (A) (A) (A) (A) (A) (A) (A) (A) (A) (A) (A)
                 (A) (A) (A) (A) (A) (A) (A) (A) (A) (A) (A) (A)
                 (A) (A) (A) (A) (A) (A) (A) (A) (A) (A) (A) (A)
                 (A) (A) (A) (A) (A) (A) (A) (A) (A) (A) (A) (A)
                 (A) (A) (A) (A) (A) (A) (A) (A) (A) (A) (A) (A)
                 (A) (A) (A) (A) (A) (A) (A) (A) (A) (A) (A) (A)
                 (A) (A) (A) (A) (A) (A) (A) (A) (A) (A) (A) (A)
                 (A) (A) (A) (A) (A) (A) (A) (A) (A) (A) (A) (A)
                 (A) (A) (A) (A) (A) (A) (A) (A) (A) (A) (A) (A)
                 (A) (A) (A) (A) (A) (A) (A) (A) (A) (A) (A) (A)
                 (A) (A) (A) (A) (A) (A) (A) (A) (A) (A) (A) (A)
                 (A) (A) (A) (A) (A) (A) (A) (A) (A) (A) (A) (A)
                 (A) (A) (A) (A) (A) (A) (A) (A) (A) (A) (A) (A)
                 (A) (A) (A) (A) (A) (A) (A) (A) (A) (A) (A) (A)
                 (A) (A) (A) (A) (A) (A) (A) (A) (A) (A) (A) (A)
                 (A) (A) (A) (A) (A) (A) (A) (A) (A) (A) (A) (A)
                 (A) (A) (A) (A) (A) (A) (A) (A) (A) (A) (A) (A)
                 (A) (A) (A) (A) (A) (A) (A) (A) (A) (A) (A) (A)
                 (A) (A) (A) (A) (A) (A) (A) (A) (A) (A) (A) (A)
                 (A) (A) (A) (A) (A) (A) (A) (A) (A) (A) (A) (A)
                 (A) (A) (A) (A) (A) (A) (A) (A) (A) (A) (A) (A)
                 (A) (A) (A) (A) (A) (A) (A) (A) (A) (A) (A) (A)
                 (A) (A) (A) (A) (A) (A) (A) (A) (A) (A) (A) (A)
                 (A) (A) (A) (A) (A) (A) (A) (A) (A) (A) (A) (A)
                 (A) (A) (A) (A) (A) (A) (A) (A) (A) (A) (A) (A)
                 (A) (A) (A) (A) (A) (A) (A) (A) (A) (A) (A) (A)
                 (A) (A) (A) (A) (A) (A) (A) (A) (A) (A) (A) (A)
                 (A) (A) (A) (A) (A) (A) (A) (A) (A) (A) (A) (A)
                 (A) (A) (A) (A) (A) (A) (A) (A) (A) (A) (A) (A)
                 (A)
 The electronic state is 1-A.
 Alpha  occ. eigenvalues -- -101.63446-101.62919-101.62890 -19.23202 -19.23181
 Alpha  occ. eigenvalues --  -14.63402 -14.42801 -10.45293 -10.33598 -10.30986
 Alpha  occ. eigenvalues --  -10.29788 -10.28795 -10.28748 -10.27780  -9.56891
 Alpha  occ. eigenvalues --   -9.56354  -9.56301  -7.33197  -7.32676  -7.32627
 Alpha  occ. eigenvalues --   -7.32246  -7.32213  -7.31701  -7.31671  -7.31643
 Alpha  occ. eigenvalues --   -7.31624  -1.32480  -1.14480  -1.07784  -1.03778
 Alpha  occ. eigenvalues --   -0.98284  -0.94578  -0.94229  -0.89287  -0.87679
 Alpha  occ. eigenvalues --   -0.78743  -0.76134  -0.71611  -0.67367  -0.64931
 Alpha  occ. eigenvalues --   -0.64037  -0.62199  -0.62147  -0.58947  -0.57320
 Alpha  occ. eigenvalues --   -0.56593  -0.55995  -0.54516  -0.54067  -0.51024
 Alpha  occ. eigenvalues --   -0.50192  -0.46019  -0.44699  -0.43648  -0.41795
 Alpha  occ. eigenvalues --   -0.40750  -0.40497  -0.39694  -0.38842  -0.38445
 Alpha  occ. eigenvalues --   -0.38244  -0.36806  -0.34894  -0.30085
 Alpha virt. eigenvalues --   -0.04694  -0.01054  -0.00503   0.01381   0.02297
 Alpha virt. eigenvalues --    0.02483   0.03139   0.03753   0.04439   0.05215
 Alpha virt. eigenvalues --    0.05581   0.06214   0.06547   0.07548   0.08267
 Alpha virt. eigenvalues --    0.08649   0.09161   0.09457   0.10385   0.10574
 Alpha virt. eigenvalues --    0.11155   0.11548   0.12011   0.12404   0.13575
 Alpha virt. eigenvalues --    0.13743   0.15168   0.15744   0.15930   0.16462
 Alpha virt. eigenvalues --    0.16916   0.17492   0.18267   0.18706   0.18973
 Alpha virt. eigenvalues --    0.19768   0.19973   0.20221   0.21078   0.21561
 Alpha virt. eigenvalues --    0.21835   0.22590   0.22781   0.23275   0.23734
 Alpha virt. eigenvalues --    0.24010   0.24432   0.24964   0.25396   0.25677
 Alpha virt. eigenvalues --    0.26179   0.26976   0.27181   0.27222   0.27790
 Alpha virt. eigenvalues --    0.28141   0.28625   0.28871   0.29068   0.29201
 Alpha virt. eigenvalues --    0.29527   0.30107   0.30403   0.31064   0.31248
 Alpha virt. eigenvalues --    0.31398   0.32580   0.33055   0.33116   0.33301
 Alpha virt. eigenvalues --    0.34203   0.34476   0.34739   0.35863   0.35998
 Alpha virt. eigenvalues --    0.36462   0.37474   0.37590   0.38344   0.39010
 Alpha virt. eigenvalues --    0.39337   0.39441   0.40224   0.40819   0.41069
 Alpha virt. eigenvalues --    0.41669   0.42512   0.43169   0.43482   0.44071
 Alpha virt. eigenvalues --    0.44367   0.44939   0.45532   0.46094   0.46294
 Alpha virt. eigenvalues --    0.46972   0.47002   0.47382   0.47965   0.48191
 Alpha virt. eigenvalues --    0.48648   0.48910   0.50542   0.50655   0.51035
 Alpha virt. eigenvalues --    0.51617   0.51836   0.52199   0.52836   0.53878
 Alpha virt. eigenvalues --    0.54350   0.54705   0.55358   0.56008   0.56666
 Alpha virt. eigenvalues --    0.56986   0.58286   0.58527   0.59052   0.59384
 Alpha virt. eigenvalues --    0.60069   0.60527   0.61440   0.62052   0.62274
 Alpha virt. eigenvalues --    0.62597   0.62802   0.62954   0.63251   0.64021
 Alpha virt. eigenvalues --    0.64737   0.64955   0.65506   0.66259   0.66519
 Alpha virt. eigenvalues --    0.66630   0.66867   0.67231   0.67666   0.67820
 Alpha virt. eigenvalues --    0.68244   0.68441   0.68975   0.69042   0.69759
 Alpha virt. eigenvalues --    0.71367   0.71696   0.72050   0.72291   0.72550
 Alpha virt. eigenvalues --    0.72980   0.73896   0.74849   0.75559   0.75869
 Alpha virt. eigenvalues --    0.76161   0.76737   0.76961   0.77623   0.78340
 Alpha virt. eigenvalues --    0.79145   0.79583   0.79624   0.79771   0.81186
 Alpha virt. eigenvalues --    0.81959   0.82113   0.83286   0.83613   0.84299
 Alpha virt. eigenvalues --    0.84566   0.85810   0.86284   0.87679   0.88287
 Alpha virt. eigenvalues --    0.88466   0.88822   0.89238   0.89676   0.91739
 Alpha virt. eigenvalues --    0.92383   0.93786   0.94811   0.94869   0.95782
 Alpha virt. eigenvalues --    0.96499   0.97719   0.98362   0.99495   0.99670
 Alpha virt. eigenvalues --    1.00024   1.01304   1.02246   1.03801   1.04073
 Alpha virt. eigenvalues --    1.04635   1.05309   1.05966   1.07000   1.07682
 Alpha virt. eigenvalues --    1.08663   1.09696   1.10956   1.12996   1.13339
 Alpha virt. eigenvalues --    1.13894   1.14379   1.16325   1.16746   1.17120
 Alpha virt. eigenvalues --    1.18202   1.20046   1.21336   1.23138   1.25732
 Alpha virt. eigenvalues --    1.25985   1.27191   1.28467   1.29411   1.30931
 Alpha virt. eigenvalues --    1.32385   1.33702   1.37038   1.37488   1.40232
 Alpha virt. eigenvalues --    1.41366   1.42480   1.43738   1.44618   1.46036
 Alpha virt. eigenvalues --    1.48971   1.50769   1.52377   1.52597   1.53221
 Alpha virt. eigenvalues --    1.53734   1.55235   1.56133   1.57227   1.58906
 Alpha virt. eigenvalues --    1.61263   1.64001   1.65505   1.66374   1.66491
 Alpha virt. eigenvalues --    1.67862   1.70209   1.72279   1.73148   1.75081
 Alpha virt. eigenvalues --    1.76941   1.79927   1.81253   1.81342   1.82159
 Alpha virt. eigenvalues --    1.84797   1.85100   1.85476   1.89463   1.90450
 Alpha virt. eigenvalues --    1.91050   1.91568   1.93176   1.94057   1.95711
 Alpha virt. eigenvalues --    1.96166   1.97145   1.97570   1.97811   1.98260
 Alpha virt. eigenvalues --    1.98540   1.99266   2.00420   2.00592   2.01054
 Alpha virt. eigenvalues --    2.01438   2.02570   2.03365   2.04440   2.04929
 Alpha virt. eigenvalues --    2.05341   2.06006   2.07617   2.09106   2.09443
 Alpha virt. eigenvalues --    2.10594   2.10964   2.11389   2.12272   2.13591
 Alpha virt. eigenvalues --    2.15124   2.15643   2.16963   2.17564   2.18354
 Alpha virt. eigenvalues --    2.18436   2.19385   2.20002   2.20806   2.22966
 Alpha virt. eigenvalues --    2.24503   2.24828   2.26929   2.27459   2.28817
 Alpha virt. eigenvalues --    2.29468   2.30410   2.31877   2.32906   2.34234
 Alpha virt. eigenvalues --    2.34703   2.35174   2.36992   2.37956   2.39294
 Alpha virt. eigenvalues --    2.42314   2.43576   2.44255   2.45262   2.46460
 Alpha virt. eigenvalues --    2.49100   2.49190   2.51515   2.54068   2.54369
 Alpha virt. eigenvalues --    2.55917   2.57844   2.58961   2.59617   2.60531
 Alpha virt. eigenvalues --    2.61975   2.63382   2.63681   2.65559   2.66665
 Alpha virt. eigenvalues --    2.67603   2.69711   2.70846   2.71885   2.73224
 Alpha virt. eigenvalues --    2.73764   2.74361   2.75146   2.77288   2.81153
 Alpha virt. eigenvalues --    2.82778   2.84663   2.85827   2.87537   2.87967
 Alpha virt. eigenvalues --    2.89673   2.91152   2.92243   2.92723   2.94662
 Alpha virt. eigenvalues --    2.95339   2.97636   2.98857   3.00185   3.02209
 Alpha virt. eigenvalues --    3.03232   3.05574   3.06046   3.08222   3.09952
 Alpha virt. eigenvalues --    3.12837   3.13550   3.14665   3.15676   3.16284
 Alpha virt. eigenvalues --    3.19232   3.20008   3.21569   3.21899   3.23479
 Alpha virt. eigenvalues --    3.25343   3.26272   3.27951   3.29273   3.31159
 Alpha virt. eigenvalues --    3.32773   3.34841   3.35802   3.38985   3.39504
 Alpha virt. eigenvalues --    3.41233   3.43312   3.43938   3.44815   3.45663
 Alpha virt. eigenvalues --    3.46367   3.48972   3.50091   3.51828   3.52992
 Alpha virt. eigenvalues --    3.53642   3.55962   3.56929   3.57408   3.57829
 Alpha virt. eigenvalues --    3.61235   3.61447   3.62070   3.64605   3.65758
 Alpha virt. eigenvalues --    3.66028   3.69081   3.71123   3.72200   3.74969
 Alpha virt. eigenvalues --    3.76453   3.78000   3.79812   3.85165   3.86163
 Alpha virt. eigenvalues --    3.87371   3.88550   3.91452   3.94473   3.97506
 Alpha virt. eigenvalues --    3.99116   4.00960   4.03911   4.09880   4.13572
 Alpha virt. eigenvalues --    4.13815   4.15389   4.15873   4.21680   4.22817
 Alpha virt. eigenvalues --    4.23782   4.25757   4.28827   4.29380   4.30631
 Alpha virt. eigenvalues --    4.33538   4.35861   4.36309   4.38026   4.39294
 Alpha virt. eigenvalues --    4.41382   4.42827   4.46698   4.50923   4.55184
 Alpha virt. eigenvalues --    4.57966   4.60943   4.66667   4.68609   4.75133
 Alpha virt. eigenvalues --    4.75978   4.77850   4.79257   4.83446   4.86530
 Alpha virt. eigenvalues --    4.88029   4.90725   4.93228   4.93309   4.98315
 Alpha virt. eigenvalues --    4.99661   5.00363   5.04944   5.08331   5.15016
 Alpha virt. eigenvalues --    5.17163   5.19445   5.20842   5.24122   5.25829
 Alpha virt. eigenvalues --    5.27719   5.31082   5.33149   5.38579   5.41601
 Alpha virt. eigenvalues --    5.43258   5.45681   5.52668   5.54737   5.56074
 Alpha virt. eigenvalues --    5.59583   5.67377   5.71569   5.72118   5.75326
 Alpha virt. eigenvalues --    5.78110   5.82110   5.98236   6.11005   6.12113
 Alpha virt. eigenvalues --    6.19755   6.45186   6.46382   6.53456   6.60153
 Alpha virt. eigenvalues --    6.62131   6.64637   6.95299   6.96240   6.99501
 Alpha virt. eigenvalues --    7.13729   7.33285   7.47450   7.58275   7.79631
 Alpha virt. eigenvalues --    7.83479  10.97162  11.01494  11.08532  11.09638
 Alpha virt. eigenvalues --   11.13522  11.17727  11.49527  11.52401  11.57923
 Alpha virt. eigenvalues --   22.43983  22.75238  22.99930  23.01472  23.15312
 Alpha virt. eigenvalues --   23.28055  23.58942  26.60099  26.74898  26.75030
 Alpha virt. eigenvalues --   32.53812  32.89234  44.48807  44.68879
          Condensed to atoms (all electrons):
              1          2          3          4          5          6
     1  C    7.150352  -0.337120  -0.007138  -0.101800   0.189335  -0.054551
     2  C   -0.337120   7.617359   0.055602  -0.142790   0.276725  -1.031037
     3  C   -0.007138   0.055602   6.621003   0.163379  -0.453074  -0.157098
     4  C   -0.101800  -0.142790   0.163379   6.918209  -0.140110  -0.449324
     5  C    0.189335   0.276725  -0.453074  -0.140110   7.383930  -0.961962
     6  C   -0.054551  -1.031037  -0.157098  -0.449324  -0.961962   9.890222
     7  H    0.145359  -0.106753   0.002103  -0.002842  -0.015917  -0.020821
     8  H   -0.012455  -0.075864   0.307628  -0.081995   0.006947  -0.002289
     9  H   -0.002903   0.016289  -0.067573   0.450480  -0.205507  -0.000693
    10  N   -0.276136   0.626627  -0.278722   0.006118   0.010164  -0.009138
    11  O    0.043406  -0.139224   0.066057   0.000847  -0.002667  -0.013463
    12  O    0.044724  -0.110055   0.028877  -0.001418  -0.007564   0.005947
    13  N   -0.004425  -0.003249  -0.010170  -0.077903   0.084618   0.083038
    14  H   -0.000582   0.005795  -0.005347   0.028771  -0.080941  -0.031145
    15  H   -0.008059  -0.001247   0.012117  -0.006522  -0.125867  -0.084676
    16  C   -0.566348  -0.197338   0.025222   0.038078  -0.430126  -0.912555
    17  Cl  -0.004454  -0.004743   0.003705   0.004643  -0.111988   0.020379
    18  Cl   0.006289  -0.006832   0.005301   0.013930  -0.216096   0.125707
    19  Cl   0.228911   0.125273  -0.007338  -0.004283   0.048051  -0.247504
              7          8          9         10         11         12
     1  C    0.145359  -0.012455  -0.002903  -0.276136   0.043406   0.044724
     2  C   -0.106753  -0.075864   0.016289   0.626627  -0.139224  -0.110055
     3  C    0.002103   0.307628  -0.067573  -0.278722   0.066057   0.028877
     4  C   -0.002842  -0.081995   0.450480   0.006118   0.000847  -0.001418
     5  C   -0.015917   0.006947  -0.205507   0.010164  -0.002667  -0.007564
     6  C   -0.020821  -0.002289  -0.000693  -0.009138  -0.013463   0.005947
     7  H    0.383790   0.000643  -0.000609   0.000109  -0.004157  -0.015684
     8  H    0.000643   0.404591  -0.008254   0.006666  -0.007964  -0.001966
     9  H   -0.000609  -0.008254   0.507029  -0.000010   0.000241  -0.000019
    10  N    0.000109   0.006666  -0.000010   5.846315   0.073797   0.098686
    11  O   -0.004157  -0.007964   0.000241   0.073797   8.681158  -0.110339
    12  O   -0.015684  -0.001966  -0.000019   0.098686  -0.110339   8.665301
    13  N    0.000668  -0.000926   0.007295  -0.000009   0.000045   0.000112
    14  H   -0.000136  -0.000709   0.013863  -0.000045  -0.000022   0.000010
    15  H   -0.000534   0.000359   0.000829  -0.000038   0.000023   0.000021
    16  C    0.030731   0.000076   0.000082  -0.001791   0.001285  -0.004250
    17  Cl  -0.007316  -0.000102   0.000823   0.000349  -0.000059  -0.000050
    18  Cl  -0.004609  -0.000037  -0.000223   0.000336  -0.000045  -0.000065
    19  Cl  -0.050028   0.000320  -0.000235   0.001644  -0.000417  -0.004039
             13         14         15         16         17         18
     1  C   -0.004425  -0.000582  -0.008059  -0.566348  -0.004454   0.006289
     2  C   -0.003249   0.005795  -0.001247  -0.197338  -0.004743  -0.006832
     3  C   -0.010170  -0.005347   0.012117   0.025222   0.003705   0.005301
     4  C   -0.077903   0.028771  -0.006522   0.038078   0.004643   0.013930
     5  C    0.084618  -0.080941  -0.125867  -0.430126  -0.111988  -0.216096
     6  C    0.083038  -0.031145  -0.084676  -0.912555   0.020379   0.125707
     7  H    0.000668  -0.000136  -0.000534   0.030731  -0.007316  -0.004609
     8  H   -0.000926  -0.000709   0.000359   0.000076  -0.000102  -0.000037
     9  H    0.007295   0.013863   0.000829   0.000082   0.000823  -0.000223
    10  N   -0.000009  -0.000045  -0.000038  -0.001791   0.000349   0.000336
    11  O    0.000045  -0.000022   0.000023   0.001285  -0.000059  -0.000045
    12  O    0.000112   0.000010   0.000021  -0.004250  -0.000050  -0.000065
    13  N    6.655738   0.321665   0.351499  -0.014899  -0.025691   0.006471
    14  H    0.321665   0.655876  -0.098227   0.003698   0.011115  -0.021573
    15  H    0.351499  -0.098227   0.604881   0.114790   0.081793   0.026464
    16  C   -0.014899   0.003698   0.114790   6.490147   0.241902   0.302198
    17  Cl  -0.025691   0.011115   0.081793   0.241902  17.140686  -0.089250
    18  Cl   0.006471  -0.021573   0.026464   0.302198  -0.089250  17.086317
    19  Cl  -0.000739   0.000615   0.000026   0.075327  -0.068243  -0.068690
             19
     1  C    0.228911
     2  C    0.125273
     3  C   -0.007338
     4  C   -0.004283
     5  C    0.048051
     6  C   -0.247504
     7  H   -0.050028
     8  H    0.000320
     9  H   -0.000235
    10  N    0.001644
    11  O   -0.000417
    12  O   -0.004039
    13  N   -0.000739
    14  H    0.000615
    15  H    0.000026
    16  C    0.075327
    17  Cl  -0.068243
    18  Cl  -0.068690
    19  Cl  17.194547
 Mulliken atomic charges:
              1
     1  C   -0.432403
     2  C   -0.567418
     3  C   -0.304535
     4  C   -0.615466
     5  C    0.752048
     6  C   -0.149036
     7  H    0.666004
     8  H    0.465333
     9  H    0.289094
    10  N    0.895075
    11  O   -0.588501
    12  O   -0.588231
    13  N   -0.373138
    14  H    0.197319
    15  H    0.132369
    16  C    0.803772
    17  Cl  -0.193497
    18  Cl  -0.165592
    19  Cl  -0.223197
 Sum of Mulliken atomic charges =   0.00000
 Mulliken charges with hydrogens summed into heavy atoms:
              1
     1  C    0.233600
     2  C   -0.567418
     3  C    0.160798
     4  C   -0.326372
     5  C    0.752048
     6  C   -0.149036
    10  N    0.895075
    11  O   -0.588501
    12  O   -0.588231
    13  N   -0.043449
    16  C    0.803772
    17  Cl  -0.193497
    18  Cl  -0.165592
    19  Cl  -0.223197
 Sum of Mulliken charges with hydrogens summed into heavy atoms =   0.00000
 Electronic spatial extent (au):  <R**2>=           3790.4385
 Charge=              0.0000 electrons
 Dipole moment (field-independent basis, Debye):
    X=              4.3144    Y=              4.3146    Z=              0.5129  Tot=              6.1231
 Quadrupole moment (field-independent basis, Debye-Ang):
   XX=           -119.8362   YY=            -91.3973   ZZ=           -101.5313
   XY=             -3.4687   XZ=              1.0927   YZ=              1.5246
 Traceless Quadrupole moment (field-independent basis, Debye-Ang):
   XX=            -15.5812   YY=             12.8576   ZZ=              2.7236
   XY=             -3.4687   XZ=              1.0927   YZ=              1.5246
 Octapole moment (field-independent basis, Debye-Ang**2):
  XXX=            109.7782  YYY=             30.6357  ZZZ=              0.4000  XYY=             16.3926
  XXY=             34.1814  XXZ=              1.7849  XZZ=              2.4035  YZZ=             -7.5869
  YYZ=              4.7950  XYZ=              2.7235
 Hexadecapole moment (field-independent basis, Debye-Ang**3):
 XXXX=          -3648.0133 YYYY=          -1057.8990 ZZZZ=           -404.0321 XXXY=            -51.1323
 XXXZ=              3.2127 YYYX=              4.0532 YYYZ=             16.3897 ZZZX=             -0.1173
 ZZZY=              0.8230 XXYY=           -740.3439 XXZZ=           -569.1675 YYZZ=           -289.4323
 XXYZ=              4.3476 YYXZ=              8.1280 ZZXY=             15.4470
 N-N= 1.258275174876D+03 E-N=-7.036038339859D+03  KE= 1.906441441047D+03
 Calling FoFJK, ICntrl=      2127 FMM=F ISym2X=0 I1Cent= 0 IOpClX= 0 NMat=1 NMatS=1 NMatT=0.
 FoFJK:  IHMeth= 1 ICntrl=  2127 DoSepK=T KAlg= 1 I1Cent= 0 FoldK=F
 ***** Axes restored to original set *****
 -------------------------------------------------------------------
 Center     Atomic                   Forces (Hartrees/Bohr)
 Number     Number              X              Y              Z
 -------------------------------------------------------------------
      1        6           0.010973655   -0.013097583   -0.000002052
      2        6           0.001193232    0.005021641    0.000015928
      3        6          -0.003980238   -0.000817640   -0.000006057
      4        6           0.000676246   -0.004631036    0.000082129
      5        6          -0.002376787   -0.004318876   -0.000368334
      6        6          -0.021489352    0.025598159    0.000266220
      7        1           0.002601591   -0.006037556   -0.000017384
      8        1           0.000046211   -0.000279526   -0.000006902
      9        1           0.000413506   -0.000395276    0.000003127
     10        7          -0.000002388    0.000175240    0.000019606
     11        8           0.000225556   -0.000346416   -0.000003902
     12        8           0.000116795   -0.000270464   -0.000004786
     13        7           0.007273730   -0.013157721    0.001133224
     14        1           0.000414660   -0.001189006   -0.000127566
     15        1          -0.002566704   -0.010194076    0.000041806
     16        6           0.028546236   -0.011861028   -0.003313963
     17       17          -0.007294609    0.010960224    0.014804541
     18       17          -0.006390704    0.011493058   -0.012876982
     19       17          -0.008380638    0.013347883    0.000361345
 -------------------------------------------------------------------
 Cartesian Forces:  Max     0.028546236 RMS     0.008195300

 GradGradGradGradGradGradGradGradGradGradGradGradGradGradGradGradGradGrad
 Berny optimization.
 Internal  Forces:  Max     0.042382072 RMS     0.011557874
 Search for a local minimum.
 Step number   1 out of a maximum of   97
 All quantities printed in internal units (Hartrees-Bohrs-Radians)
 Mixed Optimization -- RFO/linear search
 Second derivative matrix not updated -- first step.
     Eigenvalues ---    0.00237   0.00943   0.00943   0.01542   0.01896
     Eigenvalues ---    0.02142   0.02162   0.02197   0.02258   0.02313
     Eigenvalues ---    0.02352   0.02372   0.02433   0.03045   0.11243
     Eigenvalues ---    0.11243   0.16000   0.16000   0.16000   0.16000
     Eigenvalues ---    0.16000   0.22375   0.23499   0.24612   0.24987
     Eigenvalues ---    0.25000   0.25000   0.25000   0.25000   0.25000
     Eigenvalues ---    0.25000   0.25000   0.28519   0.29539   0.29539
     Eigenvalues ---    0.29539   0.35740   0.36093   0.36114   0.37395
     Eigenvalues ---    0.42967   0.43893   0.46878   0.47031   0.47165
     Eigenvalues ---    0.47517   0.48823   0.51195   0.52064   0.97553
     Eigenvalues ---    0.977211000.000001000.000001000.000001000.00000
     Eigenvalues --- 1000.000001000.000001000.000001000.000001000.00000
     Eigenvalues --- 1000.000001000.000001000.000001000.000001000.00000
     Eigenvalues --- 1000.000001000.000001000.000001000.000001000.00000
     Eigenvalues --- 1000.000001000.000001000.000001000.000001000.00000
     Eigenvalues --- 1000.000001000.000001000.000001000.000001000.00000
     Eigenvalues --- 1000.000001000.000001000.000001000.000001000.00000
     Eigenvalues --- 1000.000001000.00000
 RFO step:  Lambda=-3.82700430D-02 EMin= 2.36824099D-03
 Linear search not attempted -- first point.
 Maximum step size (   0.300) exceeded in Quadratic search.
    -- Step size scaled by   0.818
 Iteration  1 RMS(Cart)=  0.13904280 RMS(Int)=  0.00586079
 Iteration  2 RMS(Cart)=  0.00937777 RMS(Int)=  0.00041602
 Iteration  3 RMS(Cart)=  0.00005668 RMS(Int)=  0.00041525
 Iteration  4 RMS(Cart)=  0.00000004 RMS(Int)=  0.00041525
 Variable       Old X    -DE/DX   Delta X   Delta X   Delta X     New X
                                 (Linear)    (Quad)   (Total)
    R1        2.61970  -0.00436   0.00000  -0.00787  -0.00782   2.61188
    R2        2.57948   0.01703   0.00000   0.02665   0.02692   2.60640
    R3        2.03937  -0.00466   0.00000  -0.00955  -0.00955   2.02983
    R4        2.61147  -0.00597   0.00000  -0.01194  -0.01216   2.59931
    R5        2.75255   0.00027   0.00000   0.00054   0.00054   2.75309
    R6        2.60464  -0.00849   0.00000  -0.01474  -0.01501   2.58963
    R7        2.03903   0.00025   0.00000   0.00050   0.00050   2.03953
    R8        2.63780   0.00439   0.00000   0.00810   0.00803   2.64583
    R9        2.04489   0.00021   0.00000   0.00044   0.00044   2.04534
   R10        2.64010   0.03810   0.00000   0.06523   0.06544   2.70555
   R11        2.57838  -0.00247   0.00000  -0.00361  -0.00361   2.57477
   R12        2.91018   0.01440   0.00000   0.03642   0.03642   2.94659
   R13        2.29566   0.00041   0.00000   0.00033   0.00033   2.29599
   R14        2.29635  -0.00022   0.00000  -0.00017  -0.00017   2.29617
   R15        1.89686   0.00087   0.00000   0.00139   0.00139   1.89825
   R16        1.89854  -0.00669   0.00000  -0.01080  -0.01080   1.88774
   R17        3.32592   0.01591   0.00000   0.03901   0.03901   3.36493
   R18        3.32592   0.01365   0.00000   0.03346   0.03346   3.35937
   R19        3.32592   0.00708   0.00000   0.01735   0.01735   3.34327
    A1        2.05561   0.01581   0.00000   0.05052   0.05085   2.10646
    A2        2.11429  -0.01264   0.00000  -0.04477  -0.04494   2.06935
    A3        2.11329  -0.00317   0.00000  -0.00574  -0.00591   2.10738
    A4        2.11906   0.00214   0.00000  -0.00153  -0.00169   2.11736
    A5        2.07534  -0.00014   0.00000   0.00340   0.00348   2.07882
    A6        2.08879  -0.00200   0.00000  -0.00187  -0.00179   2.08700
    A7        2.08509  -0.00014   0.00000  -0.01062  -0.01112   2.07396
    A8        2.08356   0.00021   0.00000   0.00591   0.00616   2.08972
    A9        2.11454  -0.00008   0.00000   0.00472   0.00496   2.11950
   A10        2.11228   0.00807   0.00000   0.02271   0.02237   2.13466
   A11        2.09263  -0.00458   0.00000  -0.01359  -0.01342   2.07921
   A12        2.07827  -0.00350   0.00000  -0.00912  -0.00895   2.06932
   A13        2.04332   0.00207   0.00000   0.01150   0.01166   2.05498
   A14        2.14627  -0.04136   0.00000  -0.12021  -0.12028   2.02598
   A15        2.09318   0.03928   0.00000   0.10872   0.10864   2.20183
   A16        2.15101  -0.02796   0.00000  -0.07256  -0.07206   2.07894
   A17        2.09152  -0.01442   0.00000  -0.04430  -0.04455   2.04697
   A18        2.04064   0.04238   0.00000   0.11688   0.11663   2.15727
   A19        2.05645  -0.00019   0.00000  -0.00054  -0.00054   2.05592
   A20        2.05546   0.00032   0.00000   0.00092   0.00092   2.05638
   A21        2.17128  -0.00014   0.00000  -0.00038  -0.00038   2.17089
   A22        2.07402  -0.00548   0.00000  -0.02229  -0.02227   2.05175
   A23        2.06480   0.01074   0.00000   0.04463   0.04465   2.10945
   A24        2.03360  -0.00452   0.00000  -0.01827  -0.01824   2.01536
   A25        1.91063   0.01355   0.00000   0.04299   0.04139   1.95202
   A26        1.91063   0.01511   0.00000   0.04803   0.04635   1.95698
   A27        1.91063   0.02333   0.00000   0.05649   0.05583   1.96647
   A28        1.91063  -0.00496   0.00000   0.00533   0.00303   1.91367
   A29        1.91063  -0.02343   0.00000  -0.07682  -0.07736   1.83328
   A30        1.91063  -0.02360   0.00000  -0.07603  -0.07672   1.83391
    D1       -0.00159  -0.00004   0.00000   0.00005  -0.00002  -0.00161
    D2       -3.14090  -0.00010   0.00000  -0.00071  -0.00075   3.14153
    D3        3.13744   0.00024   0.00000   0.00217   0.00209   3.13953
    D4       -0.00187   0.00018   0.00000   0.00141   0.00135  -0.00052
    D5       -0.00064   0.00031   0.00000   0.00253   0.00253   0.00190
    D6        3.13564   0.00060   0.00000   0.00467   0.00458   3.14022
    D7       -3.13967   0.00004   0.00000   0.00047   0.00044  -3.13923
    D8       -0.00340   0.00034   0.00000   0.00261   0.00249  -0.00091
    D9        0.00202  -0.00014   0.00000  -0.00126  -0.00130   0.00073
   D10       -3.14019   0.00002   0.00000  -0.00037  -0.00035  -3.14054
   D11        3.14132  -0.00008   0.00000  -0.00049  -0.00055   3.14077
   D12       -0.00090   0.00008   0.00000   0.00041   0.00039  -0.00051
   D13        3.13907   0.00004   0.00000   0.00046   0.00045   3.13952
   D14       -0.00228   0.00003   0.00000   0.00028   0.00027  -0.00201
   D15       -0.00028  -0.00003   0.00000  -0.00029  -0.00027  -0.00055
   D16        3.14156  -0.00004   0.00000  -0.00047  -0.00046   3.14110
   D17       -0.00023   0.00009   0.00000  -0.00002   0.00003  -0.00020
   D18        3.13658   0.00035   0.00000   0.00205   0.00210   3.13868
   D19       -3.14119  -0.00008   0.00000  -0.00092  -0.00093   3.14107
   D20       -0.00438   0.00019   0.00000   0.00114   0.00114  -0.00324
   D21       -0.00185   0.00014   0.00000   0.00231   0.00236   0.00050
   D22        3.10883   0.00089   0.00000   0.00487   0.00490   3.11373
   D23       -3.13870  -0.00012   0.00000   0.00028   0.00031  -3.13839
   D24       -0.02802   0.00063   0.00000   0.00284   0.00286  -0.02516
   D25        0.00232  -0.00037   0.00000  -0.00372  -0.00366  -0.00134
   D26       -3.13410  -0.00050   0.00000  -0.00537  -0.00535  -3.13944
   D27       -3.10934   0.00038   0.00000  -0.00199  -0.00203  -3.11137
   D28        0.03742   0.00025   0.00000  -0.00364  -0.00372   0.03371
   D29        0.29348  -0.00137   0.00000  -0.01830  -0.01822   0.27527
   D30        2.93035  -0.00108   0.00000  -0.01486  -0.01478   2.91557
   D31       -2.87987  -0.00129   0.00000  -0.01747  -0.01755  -2.89742
   D32       -0.24301  -0.00100   0.00000  -0.01403  -0.01412  -0.25712
   D33       -2.07750   0.00551   0.00000   0.02482   0.02544  -2.05206
   D34        2.11129  -0.00596   0.00000  -0.03744  -0.03808   2.07321
   D35        0.01690  -0.00060   0.00000  -0.00833  -0.00844   0.00846
   D36        1.05911   0.00559   0.00000   0.02630   0.02700   1.08611
   D37       -1.03529  -0.00588   0.00000  -0.03597  -0.03652  -1.07181
   D38       -3.12968  -0.00052   0.00000  -0.00686  -0.00688  -3.13656
         Item               Value     Threshold  Converged?
 Maximum Force            0.042382     0.000015     NO 
 RMS     Force            0.011558     0.000010     NO 
 Maximum Displacement     0.610837     0.000060     NO 
 RMS     Displacement     0.143100     0.000040     NO 
 Predicted change in Energy=-2.023377D-02
 GradGradGradGradGradGradGradGradGradGradGradGradGradGradGradGradGradGrad

                          Input orientation:                          
 ---------------------------------------------------------------------
 Center     Atomic      Atomic             Coordinates (Angstroms)
 Number     Number       Type             X           Y           Z
 ---------------------------------------------------------------------
      1          6           0       -1.252348   -0.208713   -0.000219
      2          6           0       -0.405409   -1.300973    0.000889
      3          6           0       -0.895966   -2.586018    0.002157
      4          6           0       -2.253216   -2.775208    0.001435
      5          6           0       -3.157719   -1.706473   -0.000314
      6          6           0       -2.621019   -0.379163   -0.001998
      7          1           0       -0.821544    0.775247    0.000760
      8          1           0       -0.211296   -3.420317    0.003987
      9          1           0       -2.644520   -3.784341   -0.000328
     10          7           0        1.034767   -1.081042    0.002678
     11          8           0        1.757088   -2.057991    0.005851
     12          8           0        1.433149    0.066876    0.000961
     13          7           0       -4.478434   -2.039562   -0.034953
     14          1           0       -4.724400   -2.988164    0.185721
     15          1           0       -5.183956   -1.357889    0.153352
     16          6           0       -3.501544    0.907694   -0.001251
     17         17           0       -4.508734    1.020428    1.462836
     18         17           0       -4.532480    1.014443   -1.445554
     19         17           0       -2.539354    2.392308   -0.011965
 ---------------------------------------------------------------------
                    Distance matrix (angstroms):
                    1          2          3          4          5
     1  C    0.000000
     2  C    1.382149   0.000000
     3  C    2.403870   1.375496   0.000000
     4  C    2.754747   2.363844   1.370373   0.000000
     5  C    2.423577   2.782021   2.426754   1.400115   0.000000
     6  C    1.379245   2.399723   2.801078   2.424113   1.431713
     7  H    1.074137   2.117512   3.362089   3.828239   3.408321
     8  H    3.376123   2.128218   1.079274   2.141404   3.408620
     9  H    3.837089   3.343761   2.119770   1.082345   2.140305
    10  N    2.447828   1.456873   2.447995   3.698788   4.238881
    11  O    3.532219   2.291177   2.705091   4.073936   4.927365
    12  O    2.699601   2.291573   3.530244   4.654753   4.921467
    13  N    3.709561   4.139605   3.624095   2.343948   1.362510
    14  H    4.451412   4.640524   3.853872   2.487180   2.032690
    15  H    4.098991   4.781317   4.462961   3.259004   2.061737
    16  C    2.511025   3.803191   4.358334   3.888714   2.636681
    17  Cl   3.775628   4.935936   5.309626   4.650796   3.376691
    18  Cl   3.787396   4.948339   5.318216   4.652985   3.373732
    19  Cl   2.902040   4.265467   5.242581   5.175450   4.145181
                    6          7          8          9         10
     6  C    0.000000
     7  H    2.137939   0.000000
     8  H    3.880132   4.239714   0.000000
     9  H    3.405259   4.910507   2.460307   0.000000
    10  N    3.722557   2.625205   2.650450   4.565631   0.000000
    11  O    4.688960   3.831006   2.393840   4.728051   1.214985
    12  O    4.078632   2.363352   3.855480   5.608855   1.215083
    13  N    2.491586   4.614896   4.485138   2.531539   5.596030
    14  H    3.356536   5.424920   4.537389   2.234819   6.069483
    15  H    2.747850   4.858415   5.385468   3.515682   6.226705
    16  C    1.559271   2.683271   5.436676   4.769663   4.953100
    17  Cl   2.769126   3.974059   6.349523   5.357420   6.105623
    18  Cl   2.771222   3.989998   6.359316   5.355501   6.122309
    19  Cl   2.772692   2.359220   6.261528   6.177555   4.983846
                   11         12         13         14         15
    11  O    0.000000
    12  O    2.149423   0.000000
    13  N    6.235682   6.275761   0.000000
    14  H    6.550363   6.876250   1.004511   0.000000
    15  H    6.977821   6.770470   0.998949   1.694118   0.000000
    16  C    6.037263   5.005814   3.105120   4.087548   2.826178
    17  Cl   7.131619   6.192925   3.407027   4.212641   2.797689
    18  Cl   7.148782   6.211201   3.364470   4.326517   2.934089
    19  Cl   6.185863   4.603106   4.837565   5.810593   4.591866
                   16         17         18         19
    16  C    0.000000
    17  Cl   1.780644   0.000000
    18  Cl   1.777705   2.908493   0.000000
    19  Cl   1.769181   2.817011   2.815358   0.000000
 Stoichiometry    C7H5Cl3N2O2
 Framework group  C1[X(C7H5Cl3N2O2)]
 Deg. of freedom    51
 Full point group                 C1      NOp   1
 Largest Abelian subgroup         C1      NOp   1
 Largest concise Abelian subgroup C1      NOp   1
                         Standard orientation:                         
 ---------------------------------------------------------------------
 Center     Atomic      Atomic             Coordinates (Angstroms)
 Number     Number       Type             X           Y           Z
 ---------------------------------------------------------------------
      1          6           0       -0.940020   -0.449314   -0.001587
      2          6           0       -2.198160    0.122893   -0.002063
      3          6           0       -2.362449    1.488541   -0.003797
      4          6           0       -1.249441    2.287997   -0.005944
      5          6           0        0.048687    1.763414   -0.006202
      6          6           0        0.191823    0.338874   -0.004762
      7          1           0       -0.863060   -1.520686    0.001733
      8          1           0       -3.356863    1.908031   -0.003148
      9          1           0       -1.373078    3.363250   -0.010070
     10          7           0       -3.370238   -0.742381    0.001278
     11          8           0       -4.464401   -0.214183    0.003007
     12          8           0       -3.188236   -1.943755    0.002212
     13          7           0        1.062362    2.673127   -0.042533
     14          1           0        0.838233    3.627614    0.176013
     15          1           0        2.004103    2.398826    0.146625
     16          6           0        1.570302   -0.389899   -0.002060
     17         17           0        2.513718   -0.017474    1.461483
     18         17           0        2.532742   -0.007416   -1.446930
     19         17           0        1.410153   -2.151804   -0.009002
 ---------------------------------------------------------------------
 Rotational constants (GHZ):      0.7807509      0.3320861      0.2697994
 Basis read from rwf:  (5D, 7F)
 There are   596 symmetry adapted basis functions of A   symmetry.
 Integral buffers will be    131072 words long.
 Raffenetti 2 integral format.
 Two-electron integral symmetry is turned on.
   596 basis functions,   936 primitive gaussians,   680 cartesian basis functions
    64 alpha electrons       64 beta electrons
       nuclear repulsion energy      1239.0820559239 Hartrees.
 NAtoms=   19 NActive=   19 NUniq=   19 SFac= 7.50D-01 NAtFMM=   80 NAOKFM=F Big=F
 One-electron integrals computed using PRISM.
 NBasis=   596 RedAO= T  NBF=   596
 NBsUse=   593 1.00D-06 NBFU=   593
 Initial guess read from the read-write file.
 B after Tr=     0.000000    0.000000    0.000000
         Rot=    1.000000    0.000000    0.000000    0.000000 Ang=   0.00 deg.
 Initial guess orbital symmetries:
       Occupied  (A) (A) (A) (A) (A) (A) (A) (A) (A) (A) (A) (A)
                 (A) (A) (A) (A) (A) (A) (A) (A) (A) (A) (A) (A)
                 (A) (A) (A) (A) (A) (A) (A) (A) (A) (A) (A) (A)
                 (A) (A) (A) (A) (A) (A) (A) (A) (A) (A) (A) (A)
                 (A) (A) (A) (A) (A) (A) (A) (A) (A) (A) (A) (A)
                 (A) (A) (A) (A)
       Virtual   (A) (A) (A) (A) (A) (A) (A) (A) (A) (A) (A) (A)
                 (A) (A) (A) (A) (A) (A) (A) (A) (A) (A) (A) (A)
                 (A) (A) (A) (A) (A) (A) (A) (A) (A) (A) (A) (A)
                 (A) (A) (A) (A) (A) (A) (A) (A) (A) (A) (A) (A)
                 (A) (A) (A) (A) (A) (A) (A) (A) (A) (A) (A) (A)
                 (A) (A) (A) (A) (A) (A) (A) (A) (A) (A) (A) (A)
                 (A) (A) (A) (A) (A) (A) (A) (A) (A) (A) (A) (A)
                 (A) (A) (A) (A) (A) (A) (A) (A) (A) (A) (A) (A)
                 (A) (A) (A) (A) (A) (A) (A) (A) (A) (A) (A) (A)
                 (A) (A) (A) (A) (A) (A) (A) (A) (A) (A) (A) (A)
                 (A) (A) (A) (A) (A) (A) (A) (A) (A) (A) (A) (A)
                 (A) (A) (A) (A) (A) (A) (A) (A) (A) (A) (A) (A)
                 (A) (A) (A) (A) (A) (A) (A) (A) (A) (A) (A) (A)
                 (A) (A) (A) (A) (A) (A) (A) (A) (A) (A) (A) (A)
                 (A) (A) (A) (A) (A) (A) (A) (A) (A) (A) (A) (A)
                 (A) (A) (A) (A) (A) (A) (A) (A) (A) (A) (A) (A)
                 (A) (A) (A) (A) (A) (A) (A) (A) (A) (A) (A) (A)
                 (A) (A) (A) (A) (A) (A) (A) (A) (A) (A) (A) (A)
                 (A) (A) (A) (A) (A) (A) (A) (A) (A) (A) (A) (A)
                 (A) (A) (A) (A) (A) (A) (A) (A) (A) (A) (A) (A)
                 (A) (A) (A) (A) (A) (A) (A) (A) (A) (A) (A) (A)
                 (A) (A) (A) (A) (A) (A) (A) (A) (A) (A) (A) (A)
                 (A) (A) (A) (A) (A) (A) (A) (A) (A) (A) (A) (A)
                 (A) (A) (A) (A) (A) (A) (A) (A) (A) (A) (A) (A)
                 (A) (A) (A) (A) (A) (A) (A) (A) (A) (A) (A) (A)
                 (A) (A) (A) (A) (A) (A) (A) (A) (A) (A) (A) (A)
                 (A) (A) (A) (A) (A) (A) (A) (A) (A) (A) (A) (A)
                 (A) (A) (A) (A) (A) (A) (A) (A) (A) (A) (A) (A)
                 (A) (A) (A) (A) (A) (A) (A) (A) (A) (A) (A) (A)
                 (A) (A) (A) (A) (A) (A) (A) (A) (A) (A) (A) (A)
                 (A) (A) (A) (A) (A) (A) (A) (A) (A) (A) (A) (A)
                 (A) (A) (A) (A) (A) (A) (A) (A) (A) (A) (A) (A)
                 (A) (A) (A) (A) (A) (A) (A) (A) (A) (A) (A) (A)
                 (A) (A) (A) (A) (A) (A) (A) (A) (A) (A) (A) (A)
                 (A) (A) (A) (A) (A) (A) (A) (A) (A) (A) (A) (A)
                 (A) (A) (A) (A) (A) (A) (A) (A) (A) (A) (A) (A)
                 (A) (A) (A) (A) (A) (A) (A) (A) (A) (A) (A) (A)
                 (A) (A) (A) (A) (A) (A) (A) (A) (A) (A) (A) (A)
                 (A) (A) (A) (A) (A) (A) (A) (A) (A) (A) (A) (A)
                 (A) (A) (A) (A) (A) (A) (A) (A) (A) (A) (A) (A)
                 (A) (A) (A) (A) (A) (A) (A) (A) (A) (A) (A) (A)
                 (A) (A) (A) (A) (A) (A) (A) (A) (A) (A) (A) (A)
                 (A) (A) (A) (A) (A) (A) (A) (A) (A) (A) (A) (A)
                 (A) (A) (A) (A) (A) (A) (A) (A) (A) (A) (A) (A)
                 (A)
 Harris functional with IExCor=20419 diagonalized for initial guess.
 ExpMin= 3.54D-02 ExpMax= 6.95D+04 ExpMxC= 2.37D+03 IAcc=3 IRadAn=         5 AccDes= 0.00D+00
 HarFok:  IExCor=20419 AccDes= 0.00D+00 IRadAn=         5 IDoV= 1
 ScaDFX=  1.000000  1.000000  1.000000  1.000000
 FoFCou: FMM=F IPFlag=           0 FMFlag=      100000 FMFlg1=           0
         NFxFlg=           0 DoJE=T BraDBF=F KetDBF=T FulRan=T
         Omega=  0.000000  0.000000  1.000000  0.000000  0.000000 ICntrl=     500 IOpCl=  0
         NMat0=    1 NMatS0=    1 NMatT0=    0 NMatD0=    1 NMtDS0=    0 NMtDT0=    0
         I1Cent=           4 NGrid=           0.
 Petite list used in FoFCou.
 FoFJK:  IHMeth= 1 ICntrl=     0 DoSepK=T KAlg= 1 I1Cent= 0 FoldK=F
 Gradient too large for Newton-Raphson -- use scaled steepest descent instead.
 FoFJK:  IHMeth= 1 ICntrl=     0 DoSepK=T KAlg= 1 I1Cent= 0 FoldK=F
 FoFJK:  IHMeth= 1 ICntrl=     0 DoSepK=T KAlg= 1 I1Cent= 0 FoldK=F
 FoFJK:  IHMeth= 1 ICntrl=     0 DoSepK=T KAlg= 1 I1Cent= 0 FoldK=F
 FoFJK:  IHMeth= 1 ICntrl=     0 DoSepK=T KAlg= 1 I1Cent= 0 FoldK=F
 FoFJK:  IHMeth= 1 ICntrl=     0 DoSepK=T KAlg= 1 I1Cent= 0 FoldK=F
 FoFJK:  IHMeth= 1 ICntrl=     0 DoSepK=T KAlg= 1 I1Cent= 0 FoldK=F
 FoFJK:  IHMeth= 1 ICntrl=     0 DoSepK=T KAlg= 1 I1Cent= 0 FoldK=F
 Gradient too large for Newton-Raphson -- use scaled steepest descent instead.
 FoFJK:  IHMeth= 1 ICntrl=     0 DoSepK=T KAlg= 1 I1Cent= 0 FoldK=F
 FoFJK:  IHMeth= 1 ICntrl=     0 DoSepK=T KAlg= 1 I1Cent= 0 FoldK=F
 FoFJK:  IHMeth= 1 ICntrl=     0 DoSepK=T KAlg= 1 I1Cent= 0 FoldK=F
 Gradient too large for Newton-Raphson -- use scaled steepest descent instead.
 FoFJK:  IHMeth= 1 ICntrl=     0 DoSepK=T KAlg= 1 I1Cent= 0 FoldK=F
 FoFJK:  IHMeth= 1 ICntrl=     0 DoSepK=T KAlg= 1 I1Cent= 0 FoldK=F
 FoFJK:  IHMeth= 1 ICntrl=     0 DoSepK=T KAlg= 1 I1Cent= 0 FoldK=F
 FoFJK:  IHMeth= 1 ICntrl=     0 DoSepK=T KAlg= 1 I1Cent= 0 FoldK=F
 Gradient too large for Newton-Raphson -- use scaled steepest descent instead.
 FoFJK:  IHMeth= 1 ICntrl=     0 DoSepK=T KAlg= 1 I1Cent= 0 FoldK=F
 FoFJK:  IHMeth= 1 ICntrl=     0 DoSepK=T KAlg= 1 I1Cent= 0 FoldK=F
 FoFJK:  IHMeth= 1 ICntrl=     0 DoSepK=T KAlg= 1 I1Cent= 0 FoldK=F
 LinEq1:  Iter=  0 NonCon=     1 RMS=3.46D-05 Max=2.73D-03
 AX will form     1 AO Fock derivatives at one time.
 FoFJK:  IHMeth= 1 ICntrl=     0 DoSepK=T KAlg= 1 I1Cent= 0 FoldK=F
 LinEq1:  Iter=  1 NonCon=     1 RMS=4.30D-05 Max=4.10D-03
 FoFJK:  IHMeth= 1 ICntrl=     0 DoSepK=T KAlg= 1 I1Cent= 0 FoldK=F
 LinEq1:  Iter=  2 NonCon=     1 RMS=5.68D-06 Max=3.06D-04
 FoFJK:  IHMeth= 1 ICntrl=     0 DoSepK=T KAlg= 1 I1Cent= 0 FoldK=F
 LinEq1:  Iter=  3 NonCon=     1 RMS=1.88D-06 Max=9.37D-05
 FoFJK:  IHMeth= 1 ICntrl=     0 DoSepK=T KAlg= 1 I1Cent= 0 FoldK=F
 LinEq1:  Iter=  4 NonCon=     1 RMS=1.07D-06 Max=5.74D-05
 FoFJK:  IHMeth= 1 ICntrl=     0 DoSepK=T KAlg= 1 I1Cent= 0 FoldK=F
 LinEq1:  Iter=  5 NonCon=     1 RMS=3.72D-07 Max=2.39D-05
 FoFJK:  IHMeth= 1 ICntrl=     0 DoSepK=T KAlg= 1 I1Cent= 0 FoldK=F
 LinEq1:  Iter=  6 NonCon=     1 RMS=1.94D-07 Max=1.05D-05
 FoFJK:  IHMeth= 1 ICntrl=     0 DoSepK=T KAlg= 1 I1Cent= 0 FoldK=F
 LinEq1:  Iter=  7 NonCon=     1 RMS=1.22D-07 Max=8.53D-06
 FoFJK:  IHMeth= 1 ICntrl=     0 DoSepK=T KAlg= 1 I1Cent= 0 FoldK=F
 LinEq1:  Iter=  8 NonCon=     1 RMS=6.89D-08 Max=2.31D-06
 FoFJK:  IHMeth= 1 ICntrl=     0 DoSepK=T KAlg= 1 I1Cent= 0 FoldK=F
 LinEq1:  Iter=  9 NonCon=     1 RMS=2.73D-08 Max=8.68D-07
 FoFJK:  IHMeth= 1 ICntrl=     0 DoSepK=T KAlg= 1 I1Cent= 0 FoldK=F
 LinEq1:  Iter= 10 NonCon=     1 RMS=1.26D-08 Max=6.40D-07
 FoFJK:  IHMeth= 1 ICntrl=     0 DoSepK=T KAlg= 1 I1Cent= 0 FoldK=F
 LinEq1:  Iter= 11 NonCon=     1 RMS=8.02D-09 Max=5.77D-07
 FoFJK:  IHMeth= 1 ICntrl=     0 DoSepK=T KAlg= 1 I1Cent= 0 FoldK=F
 LinEq1:  Iter= 12 NonCon=     0 RMS=3.10D-09 Max=2.25D-07
 Linear equations converged to 2.602D-08 2.602D-07 after    12 iterations.
 FoFJK:  IHMeth= 1 ICntrl=     0 DoSepK=T KAlg= 1 I1Cent= 0 FoldK=F
 FoFJK:  IHMeth= 1 ICntrl=     0 DoSepK=T KAlg= 1 I1Cent= 0 FoldK=F
 FoFJK:  IHMeth= 1 ICntrl=     0 DoSepK=T KAlg= 1 I1Cent= 0 FoldK=F
 LinEq1:  Iter=  0 NonCon=     1 RMS=5.84D-08 Max=2.09D-06
 FoFJK:  IHMeth= 1 ICntrl=     0 DoSepK=T KAlg= 1 I1Cent= 0 FoldK=F
 LinEq1:  Iter=  1 NonCon=     1 RMS=3.89D-08 Max=1.00D-06
 FoFJK:  IHMeth= 1 ICntrl=     0 DoSepK=T KAlg= 1 I1Cent= 0 FoldK=F
 LinEq1:  Iter=  2 NonCon=     1 RMS=1.75D-08 Max=9.97D-07
 FoFJK:  IHMeth= 1 ICntrl=     0 DoSepK=T KAlg= 1 I1Cent= 0 FoldK=F
 LinEq1:  Iter=  3 NonCon=     1 RMS=9.16D-09 Max=4.72D-07
 FoFJK:  IHMeth= 1 ICntrl=     0 DoSepK=T KAlg= 1 I1Cent= 0 FoldK=F
 LinEq1:  Iter=  4 NonCon=     1 RMS=7.19D-09 Max=6.64D-07
 FoFJK:  IHMeth= 1 ICntrl=     0 DoSepK=T KAlg= 1 I1Cent= 0 FoldK=F
 LinEq1:  Iter=  5 NonCon=     1 RMS=5.36D-09 Max=3.17D-07
 FoFJK:  IHMeth= 1 ICntrl=     0 DoSepK=T KAlg= 1 I1Cent= 0 FoldK=F
 LinEq1:  Iter=  6 NonCon=     1 RMS=2.91D-09 Max=1.47D-07
 FoFJK:  IHMeth= 1 ICntrl=     0 DoSepK=T KAlg= 1 I1Cent= 0 FoldK=F
 LinEq1:  Iter=  7 NonCon=     1 RMS=1.63D-09 Max=7.41D-08
 FoFJK:  IHMeth= 1 ICntrl=     0 DoSepK=T KAlg= 1 I1Cent= 0 FoldK=F
 LinEq1:  Iter=  8 NonCon=     1 RMS=1.06D-09 Max=4.16D-08
 FoFJK:  IHMeth= 1 ICntrl=     0 DoSepK=T KAlg= 1 I1Cent= 0 FoldK=F
 LinEq1:  Iter=  9 NonCon=     1 RMS=4.85D-10 Max=2.05D-08
 FoFJK:  IHMeth= 1 ICntrl=     0 DoSepK=T KAlg= 1 I1Cent= 0 FoldK=F
 LinEq1:  Iter= 10 NonCon=     1 RMS=2.35D-10 Max=9.93D-09
 FoFJK:  IHMeth= 1 ICntrl=     0 DoSepK=T KAlg= 1 I1Cent= 0 FoldK=F
 LinEq1:  Iter= 11 NonCon=     1 RMS=1.08D-10 Max=6.27D-09
 FoFJK:  IHMeth= 1 ICntrl=     0 DoSepK=T KAlg= 1 I1Cent= 0 FoldK=F
 LinEq1:  Iter= 12 NonCon=     1 RMS=6.03D-11 Max=3.14D-09
 FoFJK:  IHMeth= 1 ICntrl=     0 DoSepK=T KAlg= 1 I1Cent= 0 FoldK=F
 LinEq1:  Iter= 13 NonCon=     1 RMS=2.95D-11 Max=1.40D-09
 FoFJK:  IHMeth= 1 ICntrl=     0 DoSepK=T KAlg= 1 I1Cent= 0 FoldK=F
 LinEq1:  Iter= 14 NonCon=     0 RMS=1.76D-11 Max=7.56D-10
 Linear equations converged to 1.299D-10 1.299D-09 after    14 iterations.
 FoFJK:  IHMeth= 1 ICntrl=     0 DoSepK=T KAlg= 1 I1Cent= 0 FoldK=F
 SCF Done:  E(RCAM-B3LYP) =  -1910.24915517     a.u. after    7 cycles
            Convg  =    0.4202D-08                    48 Fock formations.
              S**2 =  0.0000                  -V/T =  2.0021
 Calling FoFJK, ICntrl=      2127 FMM=F ISym2X=0 I1Cent= 0 IOpClX= 0 NMat=1 NMatS=1 NMatT=0.
 FoFJK:  IHMeth= 1 ICntrl=  2127 DoSepK=T KAlg= 1 I1Cent= 0 FoldK=F
 ***** Axes restored to original set *****
 -------------------------------------------------------------------
 Center     Atomic                   Forces (Hartrees/Bohr)
 Number     Number              X              Y              Z
 -------------------------------------------------------------------
      1        6           0.002291809   -0.008381511   -0.000181067
      2        6           0.001130383    0.006382981    0.000017812
      3        6          -0.001453490   -0.004570728    0.000045599
      4        6           0.004413897   -0.000465476    0.000336042
[...]
 097,0.00310442,0.00188248,0.75594402,0.01791638,-0.01256616,-0.0000999
 3,-0.03114320,0.01896133,0.00014357,-0.06741117,-0.14018616,0.00076708
 ,0.05325433,0.70458819,0.00050298,-0.00027914,-0.00300244,0.00046805,0
 .00095039,0.00931922,0.00179491,0.00002302,-0.06116141,-0.00364074,-0.
 00189240,0.12824110,-0.01505986,-0.04200222,0.00062350,0.01612066,0.01
 842955,-0.00025073,-0.05273332,0.01474046,0.00061978,-0.17142241,0.105
 03810,0.00085972,0.74241179,-0.09099075,0.02854710,0.00078684,0.015603
 40,-0.07489327,0.00014271,0.06638481,0.05829157,-0.00069914,0.04069399
 ,-0.24485114,0.00020189,0.01181170,0.67098581,0.00033714,-0.00021870,0
 .00416051,0.00057933,0.00060127,-0.00601448,-0.00061623,-0.00042759,0.
 00174180,0.00146478,-0.00140296,-0.07302778,-0.00763174,-0.00157059,0.
 17771529,-0.33358251,-0.05964052,0.00170504,-0.05257656,0.06745619,0.0
 0011964,-0.03963999,-0.03801127,0.00039674,0.05778428,-0.00291266,-0.0
 0037897,-0.14322796,-0.00750547,0.00028417,0.68692104,0.00222708,-0.13
 186781,0.00010080,0.00864167,0.03804820,-0.00015655,-0.02133859,-0.021
 88373,0.00023660,0.02805522,-0.03950887,0.00007947,-0.05860236,-0.2485
 4703,0.00229339,0.02684054,0.58693817,0.00111217,0.00082169,-0.0590458
 9,0.00031724,-0.00081394,0.00634637,0.00054655,0.00036601,-0.00272398,
 -0.00055250,0.00033988,0.00657491,0.00126807,0.00099705,-0.07406870,-0
 .00174201,-0.00267922,0.16669126,-0.10591275,-0.11115107,0.00077903,0.
 01400293,0.01621823,-0.00010480,-0.00262897,0.00382131,0.00003152,-0.0
 0109326,0.00052688,-0.00000367,-0.00474633,0.00040267,0.00004037,-0.00
 697885,-0.02546856,0.00016935,0.11014751,-0.11101903,-0.30431994,0.001
 58749,-0.00963499,-0.01906109,0.00015048,0.00330840,-0.00217681,0.0000
 0791,0.00065519,0.00061721,-0.00001285,0.00060185,0.00060893,0.0000124
 1,-0.00258974,0.00278832,0.00000925,0.11704369,0.32760871,0.00070287,0
 .00160826,-0.04296321,0.00001711,-0.00005327,0.00720052,0.00004844,0.0
 0003123,0.00518764,-0.00002832,0.00000974,-0.00106423,0.00004773,-0.00
 004528,0.00653250,0.00014564,0.00022381,0.00592067,-0.00090352,-0.0017
 3869,0.02796524,-0.00064851,-0.00332578,0.00003563,0.01240795,-0.00746
 371,-0.00001967,-0.16902318,0.14239588,0.00030530,-0.01248226,0.023592
 32,0.00000049,-0.00421948,-0.00141381,0.00006321,-0.00073781,-0.000805
 40,0.00000204,0.00068010,-0.00051966,0.00000120,0.17658512,-0.00334751
 ,-0.00438668,0.00004924,0.01955102,-0.01708586,-0.00004569,0.14070086,
 -0.24165866,-0.00019517,-0.00487460,0.00943957,0.00000749,-0.00229164,
 0.00069373,0.00001451,-0.00087012,0.00029950,0.00000773,0.00102870,-0.
 00064036,-0.00000180,-0.15339698,0.25059073,0.00003184,0.00004549,0.00
 519268,-0.00012867,0.00006859,0.00573377,0.00029903,-0.00018968,-0.042
 91255,0.00018169,-0.00015374,0.00550486,0.00005710,0.00005886,0.008788
 59,-0.00000969,-0.00003526,-0.00089447,-0.00000258,0.00000314,0.000294
 87,-0.00038910,0.00020172,0.02820363,-0.00125715,0.00067361,0.00000244
 ,-0.00495658,0.00070144,0.00007119,-0.00884460,-0.03131858,0.00013706,
 -0.09908830,-0.09781314,0.00072170,0.00842186,0.01887070,-0.00007041,-
 0.00179854,0.00261975,0.00001205,0.00001334,-0.00002939,0.00000075,0.0
 0123546,0.00033708,-0.00003378,0.10486259,0.00114425,0.00010431,-0.000
 01038,-0.00027205,0.00218868,-0.00000216,-0.00043174,0.00037690,-0.000
 00383,-0.09671898,-0.30015159,0.00115353,-0.01271757,-0.01974301,0.000
 13304,0.00349555,-0.00198929,0.00000966,-0.00002563,-0.00003328,-0.000
 00038,-0.00019200,0.00072664,-0.00000193,0.10561385,0.31705156,0.00005
 461,-0.00003369,-0.00091168,0.00009206,0.00004746,0.00742307,0.0000836
 0,0.00026334,0.00310080,0.00066408,0.00097671,-0.03476387,-0.00012208,
 0.00005115,0.00429304,0.00000297,-0.00002238,0.00485411,0.00000056,-0.
 00000069,-0.00021147,-0.00004716,-0.00002171,-0.00507003,-0.00085203,-
 0.00120517,0.02376917,-0.04931313,0.01447806,0.00020786,-0.13225144,-0
 .00559894,0.00029678,-0.03346422,-0.02776624,0.00025978,0.01516328,-0.
 00572172,-0.00024414,-0.01705183,-0.00288759,-0.00052532,0.01271668,0.
 01027249,-0.00009268,0.00111156,-0.00170596,-0.00003436,0.00076561,0.0
 0359441,-0.00000649,0.00058715,0.00038477,-0.00000311,0.69311397,0.015
 99251,0.01991945,-0.00015665,-0.00235870,-0.11651966,0.00009999,-0.032
 34924,0.00786379,0.00013449,-0.00279155,-0.00871846,0.00007505,-0.0015
 4329,-0.00575406,-0.00004664,0.00841766,-0.00492349,-0.00003701,0.0018
 1411,-0.00347298,-0.00001842,-0.00011685,-0.00289225,0.00000058,-0.001
 71377,0.00007058,0.00002255,-0.04057217,0.97778590,0.00020703,-0.00016
 839,-0.00314764,0.00024779,0.00014792,-0.08346576,0.00021663,0.0000858
 3,-0.00360556,0.00004313,0.00007110,0.00728149,0.00008932,0.00001471,-
 0.00159426,-0.00007419,-0.00000596,0.00725009,-0.00004004,-0.00000034,
 -0.00506268,-0.00001982,-0.00002541,-0.00395686,0.00001441,0.00000260,
 0.00131564,-0.00226560,-0.00137044,0.25168382,-0.00177059,-0.00801169,
 0.00005435,-0.05368074,0.04710558,0.00029825,-0.00038558,0.00399205,0.
 00000178,-0.00262155,0.00190955,0.00005848,0.00449874,0.00263031,0.000
 12691,-0.00490824,-0.00059541,0.00003397,0.00085277,-0.00033168,0.0000
 0406,-0.00410054,-0.00019744,0.00001896,-0.00020488,-0.00015251,0.0000
 0130,-0.30398880,0.20295017,0.00072214,0.32430616,-0.00043590,0.001599
 67,0.00000704,0.03158299,0.00000705,-0.00012164,-0.00929185,-0.0091676
 2,0.00008740,0.00364082,0.00126836,-0.00008198,-0.00341777,-0.00003947
 ,-0.00009160,0.00111687,0.00237442,-0.00000835,-0.00184992,0.00102312,
 0.00000525,-0.00117284,0.00328130,0.00000695,0.00020715,-0.00000720,-0
 .00000100,0.20094051,-0.38091299,-0.00041878,-0.26114600,0.50926738,0.
 00002978,0.00005547,0.00352385,0.00034368,-0.00020767,0.02123049,0.000
 03391,0.00001000,0.00108816,-0.00000841,-0.00001688,-0.00052192,-0.000
 02925,-0.00001479,0.00027554,0.00002668,-0.00000543,-0.00100046,0.0000
 0291,0.00000129,0.00058979,0.00002509,-0.00000815,-0.00013748,-0.00000
 098,0.00000031,-0.00004181,0.00073468,-0.00045140,-0.08407211,-0.00101
 117,0.00035538,0.03102454,-0.00234888,-0.00243280,0.00002132,-0.028233
 59,-0.05398596,0.00038339,-0.00420201,0.00671592,0.00001257,-0.0040718
 6,-0.00107475,0.00007526,0.00406761,-0.00096149,0.00012412,-0.00121404
 ,-0.00230085,0.00001610,-0.00425697,-0.00237717,0.00002753,0.00028029,
 -0.00019538,-0.00000389,-0.00090197,-0.00010327,0.00000974,-0.20231449
 ,-0.15132023,0.00094999,0.04713223,0.03738819,-0.00017692,0.19980375,0
 .01273650,-0.00735630,-0.00004202,-0.04051530,-0.02373051,0.00031104,-
 0.00118797,0.00327347,0.00000174,-0.00277302,0.00159486,0.00004985,0.0
 0460922,0.00101238,0.00012852,-0.00473201,-0.00018092,0.00004299,-0.00
 114100,0.00282826,-0.00000041,0.00134722,0.00144233,-0.00001810,-0.000
 37809,-0.00006052,0.00000590,-0.14908868,-0.48395805,0.00164503,0.0135
 3786,-0.12952193,0.00028360,0.17152227,0.63538344,-0.00000862,0.000037
 74,0.00119566,0.00034790,0.00038041,0.02100911,0.00005544,-0.00002676,
 0.00369059,0.00000532,0.00000341,-0.00105846,-0.00003481,-0.00000022,0
 .00027997,0.00001249,0.00000575,-0.00059086,0.00002647,0.00000405,-0.0
 0010847,-0.00000508,-0.00000120,0.00040205,0.00000007,-0.00000053,-0.0
 0059857,0.00095454,0.00168529,-0.08410980,-0.00012083,0.00013739,0.028
 82040,-0.00126679,-0.00222680,0.03117609,0.00387338,0.00340897,-0.0001
 0309,-0.01719576,-0.01054519,0.00018583,0.01748685,0.00972961,-0.00014
 590,-0.07006213,0.01440589,-0.00029443,-0.34810725,-0.04134437,-0.0028
 5049,-0.02162755,-0.03069227,-0.00030399,-0.00035187,0.00046361,-0.000
 00471,-0.00044718,-0.00005670,-0.00001920,0.00176971,-0.00131236,0.000
 00579,0.01598933,0.00190332,-0.00008902,-0.00467308,0.00258051,0.00002
 373,-0.00417032,-0.00402512,0.00003048,0.78731356,0.00796289,-0.009325
 76,-0.00016305,-0.00400712,0.00530265,0.00001253,-0.00087735,-0.009250
 65,0.00047355,0.03992253,0.01237089,0.00061462,-0.04522522,-0.14574889
 ,-0.00211161,-0.04851137,-0.00967441,-0.00035134,-0.00136897,0.0002236
 3,0.00001932,0.00112880,0.00038586,-0.00006475,0.00138837,0.00206900,-
 0.00034801,0.00261798,0.00023501,-0.00007504,-0.00103970,0.00093030,0.
 00001409,-0.00046334,-0.00002214,0.00001601,-0.03744147,0.86395332,0.0
 0073226,0.00070164,0.00366331,-0.00227388,-0.00113981,-0.00070872,0.00
 227488,0.00053131,0.00445005,-0.00195092,0.00248868,0.01163634,0.01628
 654,0.00102980,-0.04253365,-0.00051221,-0.00289008,0.00858484,0.000038
 11,0.00002666,-0.00004568,0.00010101,0.00003119,-0.00030051,-0.0001568
 7,0.00015713,-0.00285916,0.00201007,0.00022854,-0.00033300,-0.00056152
 ,0.00037136,-0.00002346,-0.00047097,-0.00049524,-0.00000109,-0.0771941
 4,-0.00293120,0.03675723,0.00050637,-0.00175137,-0.00009609,0.00001204
 ,0.00043505,0.00002756,-0.00022966,0.00017208,-0.00013415,0.00139791,-
 0.00247280,-0.00041890,-0.00850555,-0.03683657,0.00412723,-0.00537435,
 0.00161479,0.00017823,-0.00035968,0.00005832,-0.00001325,-0.00001791,0
 .00001046,0.00002883,-0.00044103,0.00173619,0.00012397,-0.00009070,0.0
 0000675,0.00000875,0.00002001,0.00008060,-0.00000081,0.00009901,0.0001
 5941,-0.00000019,-0.10398832,-0.10353878,0.01839916,0.10383603,-0.0003
 7644,-0.00041392,0.00000768,0.00156426,0.00095948,-0.00000481,-0.00157
 113,-0.00113795,-0.00035227,0.00500319,0.00150125,-0.00047589,-0.00645
 302,-0.00305773,0.00079311,0.00138359,0.00327174,0.00029667,-0.0000107
 6,0.00003446,-0.00000425,0.00007426,0.00000357,0.00002407,-0.00013967,
 -0.00017272,0.00030418,-0.00148092,-0.00015746,0.00010703,0.00044701,-
 0.00031032,-0.00001473,0.00034639,0.00032645,-0.00002482,-0.10591037,-
 0.42814452,0.04052602,0.11758523,0.44189692,-0.00045724,-0.00013836,0.
 00144646,0.00066268,0.00011233,0.00013006,-0.00040864,-0.00023233,-0.0
 0099553,0.00076459,-0.00046649,-0.00246341,-0.00515314,-0.00287578,-0.
 00337603,0.00008178,0.00094417,0.00338819,-0.00002415,-0.00000812,-0.0
 0023559,0.00000618,0.00000221,0.00018759,0.00016432,-0.00015230,0.0007
 9704,-0.00058852,-0.00008889,0.00011893,0.00017455,-0.00010626,-0.0000
 6043,0.00013049,0.00014500,-0.00003879,0.02523752,0.05336540,-0.005878
 57,-0.01787097,-0.04492118,0.01044033,-0.00059651,0.00033277,-0.000186
 52,0.00098234,0.00020381,0.00000731,-0.00090633,0.00130092,-0.00005643
 ,-0.00285796,-0.00412685,0.00045975,-0.02020130,0.02565021,0.00457079,
 0.00185976,0.00126926,-0.00050094,0.00006352,-0.00003875,0.00002012,-0
 .00030669,-0.00013896,-0.00001375,0.00011560,0.00022776,-0.00000152,-0
 .00084687,-0.00003764,-0.00000236,0.00026565,-0.00023558,0.00000377,0.
 00020975,0.00015830,0.00000273,-0.25535609,0.19129052,0.04353609,0.013
 29469,-0.01069570,-0.00279582,0.26511028,0.00003705,0.00001924,-0.0000
 1358,-0.00174775,-0.00154733,0.00001630,0.00186186,0.00191277,-0.00010
 078,-0.00530998,0.00079411,-0.00047860,0.00071187,0.01472126,0.0019384
 1,-0.00056138,-0.00216610,0.00007142,-0.00016581,0.00010060,-0.0000068
 9,-0.00014049,-0.00002714,0.00005444,-0.00004212,0.00032417,-0.0000254
 9,0.00186793,0.00035930,-0.00001855,-0.00047272,0.00019753,-0.00000034
 ,-0.00052137,-0.00062158,0.00000821,0.19015331,-0.27836122,-0.03904182
 ,0.02168012,-0.01353479,-0.00532891,-0.20447951,0.28272684,-0.00012363
 ,-0.00020125,-0.00046630,0.00073858,0.00047189,0.00013418,-0.00091290,
 -0.00014333,0.00204945,0.00024702,-0.00074489,0.00374746,-0.00592864,0
 .00197046,-0.00574620,0.00060295,0.00077044,-0.00150552,0.00000296,-0.
 00000552,0.00005633,-0.00006104,-0.00001140,-0.00041238,0.00000945,-0.
 00009858,-0.00081807,-0.00066452,-0.00006161,-0.00016247,0.00018191,-0
 .00012788,0.00000987,0.00015493,0.00015091,0.00000104,0.05553700,-0.04
 793157,-0.00782337,-0.00447525,0.00381734,-0.00235801,-0.04561480,0.04
 253207,0.01241223,-0.02793660,0.02980391,-0.00015390,-0.00327082,-0.00
 827424,0.00009563,0.00306877,0.00105788,-0.00002386,-0.00302677,-0.001
 27545,0.00011417,0.02569987,0.00382030,0.00043910,-0.11344163,0.035549
 34,-0.00031978,-0.00030688,0.00017619,-0.00002152,-0.00011889,0.000069
 79,-0.00001089,0.00037880,-0.00101390,-0.00001005,-0.00192995,0.001405
 99,0.00002621,0.00067331,-0.00041274,-0.00000993,0.00083025,-0.0001589
 9,-0.00000534,-0.01212437,-0.00204436,-0.00149636,-0.00090906,0.000969
 50,0.00040216,-0.00072757,-0.00569216,0.00067458,0.29673018,0.02137975
 ,0.00029769,-0.00008237,-0.00602847,0.00741506,0.00003515,-0.00492166,
 -0.00261719,0.00004607,-0.00088847,-0.00528038,-0.00000707,0.01210425,
 -0.02847058,-0.00009118,0.04007441,-0.14610937,0.00073646,-0.00265699,
 0.00012762,-0.00001221,0.00008981,-0.00022289,0.00000610,0.00082803,-0
 .00049237,-0.00001177,0.00446953,0.00380981,-0.00001987,-0.00199959,-0
 .00042132,0.00000782,-0.00184617,-0.00255450,0.00001331,0.00837369,0.0
 0363800,0.00064496,-0.00007361,-0.00038613,-0.00022575,-0.00261567,-0.
 00035933,0.00018087,-0.02992327,0.34771624,0.00006528,-0.00007061,0.00
 202686,0.00012041,0.00001599,0.00643168,-0.00000504,0.00001189,-0.0005
 9588,0.00011632,0.00002599,0.00433817,-0.00044870,-0.00016013,0.000033
 04,-0.00051481,0.00087953,-0.05907960,-0.00000959,-0.00001038,-0.00372
 794,0.00000431,-0.00000150,-0.00052298,-0.00001373,0.00001764,0.000054
 95,-0.00000117,-0.00001196,0.00133886,0.00000328,-0.00000505,-0.000573
 73,0.00000156,0.00000969,-0.00015401,0.00002593,-0.00034265,-0.0055958
 1,0.00016336,0.00005358,0.00027503,0.00041200,0.00129863,0.00542283,0.
 00268997,-0.00085574,0.22840015,0.00381600,0.00108304,0.00237875,-0.00
 063014,0.00315783,-0.00138787,-0.00251030,-0.00129268,0.00014773,0.002
 00411,-0.00148838,-0.00053668,-0.00687290,-0.00203650,0.00012701,-0.01
 966837,0.00905647,0.02046185,0.00026214,-0.00029033,0.00075760,0.00004
 239,-0.00003430,0.00007099,0.00005488,0.00012960,0.00007713,0.00086044
 ,0.00043174,-0.00045460,-0.00065397,0.00013377,0.00015776,-0.00032215,
 -0.00014961,-0.00000660,0.00513065,-0.00015434,-0.00071786,0.00038862,
 -0.00034845,-0.00000905,0.00002635,0.00139856,0.00101793,-0.05391060,0
 .00368869,0.02936504,0.08380814,-0.00173929,-0.00119000,-0.00135869,0.
 00110668,-0.00096188,0.00072658,0.00081796,0.00029779,-0.00004432,-0.0
 0008334,0.00071562,0.00016165,-0.00079861,-0.00119544,-0.00107481,0.01
 510754,0.00126767,-0.01331405,0.00018856,-0.00023802,-0.00019893,-0.00
 001755,0.00003708,0.00002383,-0.00006439,0.00006610,-0.00006361,-0.001
 06023,-0.00076259,0.00029730,0.00046426,0.00005174,-0.00010192,0.00041
 624,0.00052639,-0.00002946,-0.00014272,-0.00502819,-0.00357044,0.00061
 222,-0.00038482,-0.00066754,0.00130672,-0.00272088,-0.00061331,0.00148
 190,-0.03318974,-0.00122509,0.00347224,0.04625217,-0.00213372,-0.00124
 848,-0.00163837,0.00069355,-0.00147938,0.00058248,0.00110160,0.0006388
 4,-0.00014574,-0.00055309,0.00056880,0.00035484,0.00269816,0.00119853,
 0.00076556,0.01496254,-0.00511532,-0.00683480,-0.00019210,0.00022322,-
 0.00032697,-0.00002141,0.00000898,-0.00002988,-0.00005658,-0.00003756,
 -0.00010271,-0.00063664,-0.00026020,0.00027393,0.00045133,-0.00012754,
 -0.00007461,0.00023158,0.00009836,0.00003989,-0.00306602,-0.00312980,0
 .00001495,0.00027905,-0.00019572,-0.00058347,0.00053768,-0.00210811,-0
 .00195362,0.03351816,-0.00572565,-0.07129391,-0.06753571,0.00313107,0.
 13054456,0.00372443,0.00093407,-0.00235572,-0.00058766,0.00309624,0.00
 136186,-0.00243052,-0.00120974,-0.00009157,0.00185173,-0.00146131,0.00
 047234,-0.00665688,-0.00187978,-0.00054506,-0.01935581,0.00916530,-0.0
 2060887,0.00023303,-0.00027462,-0.00075935,0.00003977,-0.00003597,-0.0
 0006854,0.00005581,0.00011857,-0.00007978,0.00088324,0.00042996,0.0004
 1893,-0.00064696,0.00012713,-0.00014452,-0.00032993,-0.00016389,0.0000
 1275,0.00487184,0.00008355,0.00184021,0.00031030,-0.00035560,-0.000287
 26,0.00004361,0.00078434,-0.00143983,-0.05575024,0.00339776,-0.0319455
 1,0.00739163,0.00011840,0.00333147,0.08513561,-0.00170195,-0.00115719,
 0.00137885,0.00095432,-0.00106134,-0.00074066,0.00095692,0.00034806,0.
 00002240,-0.00034040,0.00080763,-0.00011805,0.00014320,-0.00104799,0.0
 0124461,0.01508815,0.00115572,0.01347368,0.00017380,-0.00022552,0.0001
 9688,-0.00002235,0.00003701,-0.00002667,-0.00005574,0.00003879,0.00006
 533,-0.00095273,-0.00073236,-0.00027689,0.00044086,0.00006009,0.000095
 95,0.00038469,0.00048170,0.00002352,-0.00017145,-0.00432266,0.00327504
 ,0.00055355,-0.00027610,0.00064130,0.00063508,-0.00210540,0.00004541,0
 .00066373,-0.03320875,0.00029907,0.00013940,0.00463140,0.00005362,0.00
 403779,0.04472409,0.00210818,0.00118925,-0.00163453,-0.00065146,0.0015
 3813,0.00059864,-0.00115578,-0.00066053,-0.00012441,0.00063408,-0.0006
 1540,0.00030867,-0.00293103,-0.00112787,0.00053180,-0.01518847,0.00524
 571,-0.00719903,0.00018871,-0.00022526,-0.00034046,0.00002029,-0.00001
 005,-0.00002656,0.00005133,0.00003942,-0.00010450,0.00059967,0.0002568
 9,0.00025679,-0.00043807,0.00011951,-0.00006885,-0.00021995,-0.0000896
 0,0.00004429,0.00302632,0.00288069,0.00037114,-0.00030568,0.00007500,-
 0.00064154,-0.00039451,0.00138916,-0.00179173,-0.03595282,0.00536757,-
 0.07531959,-0.00283242,-0.00026285,-0.04334576,0.06991873,-0.00136190,
 0.13499926,-0.00592220,0.00622136,0.00003940,0.00189602,0.00091891,-0.
 00000805,-0.00047430,0.00031941,0.00000170,0.00037126,0.00025798,-0.00
 001031,-0.00241547,-0.00001175,-0.00004493,0.00485044,0.00449153,0.000
 00315,-0.00073135,0.00650407,-0.00000803,0.00006576,0.00014728,-0.0000
 0186,-0.00000214,0.00008948,-0.00000008,0.00006017,-0.00054877,0.00000
 131,-0.00011394,0.00016406,0.,-0.00005669,0.00024291,0.00000006,0.0016
 6860,0.00027736,0.00011640,0.00005128,-0.00003135,-0.00002950,-0.00017
 224,0.00063826,0.00005329,-0.05392780,-0.04345203,-0.00002891,-0.01921
 690,-0.02118661,0.01639015,-0.01878299,-0.02092685,-0.01647713,0.09285
 248,0.00058391,-0.00533901,0.00003233,0.00026248,-0.00057956,0.0000113
 4,-0.00003427,-0.00042359,0.00000523,-0.00086728,-0.00139628,0.0000290
 0,0.00486150,-0.00151218,-0.00012362,-0.01364597,-0.02929272,0.0000314
 2,0.00262075,-0.00579288,-0.00001396,-0.00004088,-0.00002350,-0.000003
 66,0.00031492,-0.00036675,-0.00000310,-0.00179049,-0.00123949,0.000008
 15,0.00046910,0.00031991,-0.00000257,0.00080909,0.00113716,-0.00000530
 ,0.00062312,0.00076979,0.00005624,-0.00003163,-0.00001741,0.00000150,-
 0.00000669,0.00028794,-0.00000005,-0.02620344,-0.10969186,0.00007111,-
 0.01689677,-0.00817440,0.01350634,-0.01691220,-0.00814719,-0.01374788,
 0.06588474,0.16948201,0.00002281,-0.00003415,0.00097945,-0.00000225,-0
 .00000418,0.00023233,0.00000291,0.00000456,0.00000923,-0.00001186,-0.0
 0000228,-0.00024354,-0.00001980,0.00004179,0.00124345,0.00007972,0.000
 13053,0.00333286,0.00000044,-0.00002407,0.00033915,-0.00000149,-0.0000
 0097,-0.00004434,-0.00000040,-0.00000048,-0.00012597,-0.00000083,-0.00
 000016,-0.00000942,0.00000033,-0.00000021,0.00001223,-0.00000006,-0.00
 000045,0.00000093,-0.00000162,0.00005281,0.00062516,-0.00002085,-0.000
 01101,-0.00015226,0.00001642,-0.00018560,-0.00079569,0.00004446,-0.000
 00672,-0.03145811,0.01891899,0.01818460,-0.00624636,-0.01903029,-0.018
 29150,-0.00651365,0.00000337,0.00014747,0.03881455\\0.00000033,-0.0000
 0020,0.,-0.00000031,0.00000031,-0.00000016,-0.00000015,-0.00000031,-0.
 00000001,0.00000036,-0.00000011,0.00000002,0.00000003,0.00000074,-0.00
 000005,-0.00000029,-0.00000061,0.00000018,0.00000001,0.,-0.00000012,0.
 ,0.00000001,-0.00000018,-0.00000004,0.,0.00000002,0.00000045,0.0000000
 8,-0.00000017,-0.00000015,0.00000006,-0.00000035,-0.00000011,-0.000000
 17,-0.00000025,-0.00000029,-0.00000006,0.00000020,0.00000011,0.0000000
 2,0.00000018,0.00000004,0.,0.00000027,0.00000020,0.00000069,-0.0000006
 6,-0.00000007,-0.00000014,0.00000055,0.00000004,0.00000001,0.00000044,
 -0.00000016,-0.00000032,0.00000010\\\@


 NO SCIENCE HAS EVER MADE MORE RAPID PROGRESS IN A
 SHORTER TIME THAN CHEMISTRY.
   -- MARTIN HEINRICH KLOPROTH, 1791
 (FIRST PROFESSOR OF CHEMISTRY AT THE UNIVERSITY OF BERLIN)
 Job cpu time:  1 days  2 hours 20 minutes 11.1 seconds.
 File lengths (MBytes):  RWF=    577 Int=      0 D2E=      0 Chk=     21 Scr=      1
 Normal termination of Gaussian 09 at Thu Feb 16 07:14:48 2023.
