 hostname is         dlt06.abaxnet
 this is node-proc. number 0 running on node dlt06.abaxnet
 the total number of node-proc. spawned is   1

 ricc2 (dlt06.abaxnet) : TURBOMOLE V6.6( 19125 ) 27 May 2014 at 14:24:19
 Copyright (C) 2014 TURBOMOLE GmbH, Karlsruhe


    2023-01-19 21:12:51.845 



                              R I C C 2 - PROGRAM

                          the quantum chemistry groups
                             at the universities in
                           Karlsruhe, Bochum & Mainz
                                   Germany



   *-----------------------------------------------------------------------*
   |                     program will use  1 thread(s)                     |
   *-----------------------------------------------------------------------*


              +--------------------------------------------------+
              | Atomic coordinate, charge and isotop information |
              +--------------------------------------------------+

                    atomic coordinates            atom    charge  isotop
          0.95811359    2.40423006   -0.03516190    c      6.000     0
          2.54518119    0.31999441   -0.03410365    c      6.000     0
          1.59659536   -2.11310357   -0.03238400    c      6.000     0
         -0.98163359   -2.48313085   -0.03633353    c      6.000     0
         -2.64852322   -0.43876842   -0.04151138    c      6.000     0
         -1.58591132    1.97805902   -0.03812877    c      6.000     0
          1.70793802    4.30074031   -0.02924706    h      1.000     0
          2.88865781   -3.69049577   -0.02909588    h      1.000     0
         -1.73875237   -4.38268356   -0.04391133    h      1.000     0
          5.26833323    0.72112658   -0.02928485    n      7.000     0
          6.62434402   -1.13123967   -0.02329442    o      8.000     0
          6.03070545    2.88722516   -0.03102340    o      8.000     0
         -5.21068950   -0.71748413   -0.11638233    n      7.000     0
         -5.95998481   -2.40678591    0.31122490    h      1.000     0
         -6.29223646    0.80285723    0.23472879    h      1.000     0
         -3.20213739    3.94945912   -0.02609121    f      9.000     0
 
       center of nuclear mass  :    0.84283027    0.60059678   -0.03568937
       center of nuclear charge:    0.78416524    0.52807287   -0.03188842

              +--------------------------------------------------+
              |               basis set information              |
              +--------------------------------------------------+

              we will work with the 1s 3p 5d 7f 9g ... basis set
              ...i.e. with spherical basis functions...

   type   atoms  prim   cont   basis
   ---------------------------------------------------------------------------
    c        6     52     37   def2-TZVPD   [6s3p3d1f|12s6p3d1f]
    h        5     11      9   def2-TZVPD   [3s2p|5s2p]
    n        2     52     37   def2-TZVPD   [6s3p3d1f|12s6p3d1f]
    o        2     55     40   def2-TZVPD   [6s4p3d1f|12s7p3d1f]
    f        1     55     40   def2-TZVPD   [6s4p3d1f|12s7p3d1f]
   ---------------------------------------------------------------------------
   total:   16    636    461
   ---------------------------------------------------------------------------

   total number of primitive shells          :   97
   total number of contracted shells         :  171
   total number of cartesian basis functions :  527
   total number of SCF-basis functions       :  461



   =========================================================================


     restricted closed shell calculation for the wavefunction models:
               ADC(2)     - Algebraic Diagrammatic Construction to 2. Order (strict)


     global parameters for ricc2 program:

        hard restart (reuse of interm.) :  disabled
        soft restart (reuse of vectors) :  disabled
        threshold for vector function   :    0.100000E-06
        convergence threshold energy    :    0.100000E-07
        linear dependence threshold     :    0.100000E-13
        global print level              :      1
        maximum number of iterations    :   500
        maximum number DIIS vectors     :    10
        max. dim. of reduced space      :   100
        core memory limit (MB)          :   500
        disk space limit (MB)           :   none


   =========================================================================
     "cartesian on" in $drvopt is ignored by $ricc2

    der. integral neglect threshold  :  0.10E-08
    integral neglect threshold       :  0.63E-12
    integral storage threshold THIZE :  0.10E-04
    integral storage threshold THIME :         5


                  +------------------------------------------+
                  |     Auxiliary basis set information      |
                  +------------------------------------------+

              we will work with the 1s 3p 5d 7f 9g ... basis set
              ...i.e. with spherical basis functions...

   type   atoms  prim   cont   basis
   ---------------------------------------------------------------------------
    c        6     97     92   def2-TZVPD   [9s7p5d4f1g|9s7p6d4f1g]
    h        5     32     24   def2-TZVPD   [5s3p2d|5s4p3d]
    n        2     97     92   def2-TZVPD   [9s7p5d4f1g|9s7p6d4f1g]
    o        2     97     92   def2-TZVPD   [9s7p5d4f1g|9s7p6d4f1g]
    f        1     97     92   def2-TZVPD   [9s7p5d4f1g|9s7p6d4f1g]
   ---------------------------------------------------------------------------
   total:   16   1227   1132
   ---------------------------------------------------------------------------

   total number of primitive shells          :  120
   total number of contracted shells         :  336
   total number of cartesian basis functions : 1395
   total number of SCF-basis functions       : 1132


 symmetry group of the molecule :   c1 

 the group has the following generators :
   c1(z)

    1 symmetry operations found

 there are 1 real representations :   a   

 maximum number of shells which are related by symmetry :  1


 The symmetry information takes   1 MB

*---------------------------------------------------------------------*
|               simplified C1 algorithm will be applied               |
*---------------------------------------------------------------------*
  MOs are in ASCII format !


 reading orbital data $scfmo  from file mos . 

 orbital characterization : scfconv=7
 

         --------------------------------------------------------------
                   checking mo's by calculating trace(D*S)

              number of electrons : 
                 from trace(D*S)         :   80.000000000001
                 from occupation numbers :   80.000000000000

              molecular charge           :    0.000000000000
         --------------------------------------------------------------

 time elapsed for calculating density matrices :   0.027 sec
 all orbitals will be active in the correlation treatment


   Molecular Orbital Statistic:
   ============================

   -----------------------------
   orbitals in total:
   -----------------------------
    frozen occupied :      0
    active occupied :     40
    active virtual  :    421
    frozen virtual  :      0
    all together    :    461
   -----------------------------


     time in riccmos       cpu:  0.24 sec    wall:  0.76 sec    ratio:  0.3

     total memory allocated for calculation of (Q|P)**(-1/2) : 15 MiB


     calculation of (P|Q) ...
     time in lp2sym        cpu:  0.05 sec    wall:  0.05 sec    ratio:  1.0


     calculation of the Cholesky decomposition of (P|Q)**(-1) ...
     time in invmetri      cpu:  0.27 sec    wall:  0.37 sec    ratio:  0.7

   threshold for RMS(d[D]) in SCF was     :  0.10E-07
   integral neglect threshold             :  0.63E-12
   derivative integral neglect threshold  :  0.10E-08


 setting up bound for integral derivative estimation

 increment for numerical differentiation : 0.00050000

   =========================================================================

     Energy of reference wave function is  -588.2952236351000
     Maximum orbital residual is           0.1902744805698E-04


     Number of symmetry-nonredundant auxiliary basis functions:     1132

     Block lengths for integral files:
        frozen occupied (BOI):        0 MiB
        active occupied (BJI):        1 MiB
        active virtual  (BAI):        4 MiB
        frozen virtual  (BGI):        0 MiB
               general  (BTI):        4 MiB

   =========================================================================




   **************************************************************************
   *                                                                        *
   *          OPTIMIZATION OF THE GROUND STATE CLUSTER AMPLITUDES           *
   *                                                                        *
   **************************************************************************


   Iter.   MP2 energy       Norm(Omega)    Norm(t1)  Norm(t2)     cpu    wall
   ...........................................................................
    1   -590.5663085151    0.1744667652     0.00000   0.46248    2.01    2.19
   ...........................................................................


     time in total         cpu:  2 min  1 s  wall:  2 min 12 s  ratio:  0.9


     **********************************************************************
     *                                                                    *
     *   RHF  energy                             :   -588.2952236351      *
     *   MP2 correlation energy                  :     -2.2710848800      *
     *                                                                    *
     *   Final MP2 energy                        :   -590.5663085151      *
     *                                                                    *
     *   Norm of MP1 T2 amplitudes               :      0.4624824413      *
     *                                                                    *
     *   D1 diagnostic                           :      0.0568            *
     *                                                                    *
     **********************************************************************



 **************************************************************
 *                                                            *
 *    OPTIMIZATION OF THE EXCITED STATE CLUSTER AMPLITUDES    *
 *                                                            *
 **************************************************************


  preoptimize excitation energies/vectors using CCS:

  ==================================================


 ======== LINEAR CC RESPONSE SOLVER ========

    threshold for convergence: 0.10E-02
    maximum number of simultaneous jacoby matrix transformations: 15
                                                
     summary of start vectors generation:
     -------------------------------------------
     type of solution vectors      : RE0
     symmetry                      : a  
     number of vectors requested   :    15
     number of vectors generated   :    15
       -- guessed as rhs/(e_a-e_i) :    15
     -------------------------------------------
                                                

    Iter  #Vectors  time (min)    max. residual 
    --------------------------------------------
      1      15         4.41     0.15E+00  (  6)
      2      15         4.37     0.57E-01  (  1)
      3      15         4.37     0.64E-01  (  8)
      4      15         4.39     0.15E+00  ( 13)
      5      15         4.37     0.15E+00  (  3)
  dimension of red. space became too large.
  try internal restart...
      6      15         4.52     0.90E-01  (  2)
                                                
     summary of start vectors generation:
     -------------------------------------------
     type of solution vectors      : RE0
     symmetry                      : a  
     number of vectors requested   :    15
     number of vectors generated   :    15
       -- restarted from file      :    15
     -------------------------------------------
                                                

    Iter  #Vectors  time (min)    max. residual 
    --------------------------------------------
      7      15         4.60     0.90E-01  (  2)
      8      12         3.41     0.38E-01  (  1)
      9       9         2.65     0.83E-02  (  1)
     10       7         2.19     0.24E-02  (  1)
     11       3         0.98     0.81E-03  ( 10)
    --------------------------------------------
    converged in 11 iterations

         Total time         40.27 minutes


 ===========================================




 Note that this is the intermediate result of a preoptimization!
 The convergence threshold was  0.1E-02 only!


 +==================================================================+
 | sym | multi | state |          CCS excitation energies           |
 |     |       |       +--------------------------------------------+
 |     |       |       |   Hartree    |     eV       |     cm-1     |
 +==================================================================+
 | a   |   1   |   1   |    0.1932481 |      5.25855 |    42413.051 |
 | a   |   1   |   2   |    0.1980973 |      5.39050 |    43477.339 |
 | a   |   1   |   3   |    0.2050759 |      5.58040 |    45008.967 |
 | a   |   1   |   4   |    0.2113828 |      5.75202 |    46393.154 |
 | a   |   1   |   5   |    0.2315342 |      6.30036 |    50815.874 |
 | a   |   1   |   6   |    0.2549015 |      6.93622 |    55944.412 |
 | a   |   1   |   7   |    0.2614950 |      7.11564 |    57391.518 |
 | a   |   1   |   8   |    0.2649385 |      7.20934 |    58147.284 |
 | a   |   1   |   9   |    0.2711096 |      7.37727 |    59501.675 |
 | a   |   1   |  10   |    0.2778149 |      7.55973 |    60973.328 |
 | a   |   1   |  11   |    0.2838677 |      7.72443 |    62301.769 |
 | a   |   1   |  12   |    0.2964600 |      8.06709 |    65065.447 |
 | a   |   1   |  13   |    0.3016087 |      8.20719 |    66195.459 |
 | a   |   1   |  14   |    0.3031148 |      8.24817 |    66526.011 |
 | a   |   1   |  15   |    0.3064057 |      8.33772 |    67248.277 |
 +==================================================================+




  preoptimize ADC(2) excitation energies/vectors using a quasi linear algorithm:
  ==============================================================================


 ======== LINEAR CC RESPONSE SOLVER ========

    threshold for convergence: 0.10E-02
    maximum number of simultaneous jacoby matrix transformations: 15
                                                
     summary of start vectors generation:
     -------------------------------------------
     type of solution vectors      : RE0
     symmetry                      : a  
     number of vectors requested   :    15
     number of vectors generated   :    15
       -- restarted from file      :    15
     -------------------------------------------
                                                

    Iter  #Vectors  time (min)    max. residual 
    --------------------------------------------
 threshold for this macro iteration:  4.811493058303368E-002
      1      15        45.22     0.94E-01  (  1)
 ...adapted threshold to:  5.946401530746642E-002
      2       9        26.16     0.39E-01  ( 10)
                                                
     summary of start vectors generation:
     -------------------------------------------
     type of solution vectors      : RE0
     symmetry                      : a  
     number of vectors requested   :    15
     number of vectors generated   :    15
       -- restarted from file      :    15
     -------------------------------------------
                                                

    Iter  #Vectors  time (min)    max. residual 
    --------------------------------------------
 threshold for this macro iteration:  6.279688891898921E-003
      3      15        43.50     0.39E-01  ( 10)
      4      15        43.02     0.18E-01  ( 11)
      5      14        40.76     0.11E-01  ( 12)
      6       5        14.87     0.83E-02  ( 15)
      7       2         6.37     0.60E-02  ( 11)
                                                
     summary of start vectors generation:
     -------------------------------------------
     type of solution vectors      : RE0
     symmetry                      : a  
     number of vectors requested   :    15
     number of vectors generated   :    15
       -- restarted from file      :    15
     -------------------------------------------
                                                

    Iter  #Vectors  time (min)    max. residual 
    --------------------------------------------
 threshold for this macro iteration:  1.000000000000000E-003
      8      15        42.93     0.20E-02  ( 15)
      9      12        34.49     0.90E-02  ( 15)
 ...adapted threshold to:  7.274752698410103E-003
     10       5        14.94     0.68E-01  ( 13)
 ...adapted threshold to:  7.292508104978113E-003
     11       2         6.38     0.49E-01  ( 11)
 ...adapted threshold to:  8.783475195521639E-003
     12       2         6.43     0.37E-01  ( 11)
 ...adapted threshold to:  9.807985132167796E-003
     13       3         9.24     0.30E-01  ( 14)
 ...adapted threshold to:  1.195089586922865E-002
     14       2         6.39     0.26E-01  ( 14)
 ...adapted threshold to:  1.388563138654053E-002
     15       2         6.39     0.22E-01  ( 14)
 ...adapted threshold to:  1.428715319670865E-002
     16       1         3.65     0.12E-01  ( 13)
                                                
     summary of start vectors generation:
     -------------------------------------------
     type of solution vectors      : RE0
     symmetry                      : a  
     number of vectors requested   :    15
     number of vectors generated   :    15
       -- restarted from file      :    15
     -------------------------------------------
                                                

    Iter  #Vectors  time (min)    max. residual 
    --------------------------------------------
 threshold for this macro iteration:  2.728184376981913E-003
     17      15        43.01     0.13E-01  ( 14)
     18       2         6.43     0.10E-01  ( 14)
     19       3         9.23     0.80E-02  ( 13)
     20       3         9.27     0.84E-02  ( 13)
     21       1         3.65     0.80E-02  ( 13)
     22       1         3.64     0.48E-02  ( 13)
     23       1         3.67     0.30E-02  ( 13)
     24       1         3.67     0.24E-02  ( 11)
                                                
     summary of start vectors generation:
     -------------------------------------------
     type of solution vectors      : RE0
     symmetry                      : a  
     number of vectors requested   :    15
     number of vectors generated   :    15
       -- restarted from file      :    15
     -------------------------------------------
                                                

    Iter  #Vectors  time (min)    max. residual 
    --------------------------------------------
 threshold for this macro iteration:  1.000000000000000E-003
     25      15        42.94     0.81E-03  ( 15)
    --------------------------------------------
    converged in 25 iterations

         Total time        476.27 minutes


 ===========================================




 Note that this is the intermediate result of a preoptimization!
 The convergence threshold was  0.1E-02 only!


 +==================================================================+
 | sym | multi | state |          ADC(2) excitation energies        |
 |     |       |       +--------------------------------------------+
 |     |       |       |   Hartree    |     eV       |     cm-1     |
 +==================================================================+
 | a   |   1   |   1   |    0.1385350 |      3.76973 |    30404.914 |
 | a   |   1   |   2   |    0.1608333 |      4.37650 |    35298.824 |
 | a   |   1   |   3   |    0.1631753 |      4.44023 |    35812.835 |
 | a   |   1   |   4   |    0.1749473 |      4.76056 |    38396.491 |
 | a   |   1   |   5   |    0.2063074 |      5.61391 |    45279.251 |
 | a   |   1   |   6   |    0.2092960 |      5.69524 |    45935.173 |
 | a   |   1   |   7   |    0.2229939 |      6.06797 |    48941.511 |
 | a   |   1   |   8   |    0.2383857 |      6.48680 |    52319.606 |
 | a   |   1   |   9   |    0.2396385 |      6.52090 |    52594.571 |
 | a   |   1   |  10   |    0.2428984 |      6.60960 |    53310.043 |
 | a   |   1   |  11   |    0.2491037 |      6.77846 |    54671.951 |
 | a   |   1   |  12   |    0.2578562 |      7.01663 |    56592.905 |
 | a   |   1   |  13   |    0.2647170 |      7.20332 |    58098.666 |
 | a   |   1   |  14   |    0.2654200 |      7.22245 |    58252.967 |
 | a   |   1   |  15   |    0.2724571 |      7.41393 |    59797.420 |
 +==================================================================+





  solve for ADC(2) excitation energies/vectors using a DIIS algorithm:
  =================================================================
                                                
     summary of start vectors generation:
     -------------------------------------------
     type of solution vectors      : RE0
     symmetry                      : a  
     number of vectors requested   :    15
     number of vectors generated   :    15
       -- restarted from file      :    15
     -------------------------------------------
                                                


 ========= DIIS CC RESPONSE SOLVER =========

    threshold for convergence:0.10E-05
    max. nb. of DIIS vectors :      10
    maximum number of simultaneous jacoby matrix transformations: 15

    Iter  #Vectors  time (min)   residual
    --------------------------------------
      1      15        43.26     0.72E-03  ( 15)    0.70E-02
      2      15        42.95     0.65E-03  ( 15)    0.20E-02
      3      15        43.09     0.58E-03  ( 15)    0.29E-02
      4      15        43.01     0.45E-03  ( 15)    0.51E-02
      5      14        40.36     0.34E-03  ( 15)    0.20E-02
      6      11        31.91     0.25E-03  ( 15)    0.22E-02
      7       9        26.41     0.20E-03  ( 15)    0.20E-02
      8       8        23.60     0.18E-03  ( 15)    0.26E-02
      9       6        17.93     0.17E-03  ( 15)    0.19E-02
     10       5        14.88     0.16E-03  ( 15)    0.21E-02
     11       5        14.79     0.16E-03  ( 15)    0.20E-02
     12       5        15.09     0.16E-03  ( 15)    0.19E-02
     13       5        14.80     0.15E-03  ( 15)    0.20E-02
     14       4        12.00     0.13E-03  ( 15)    0.19E-02
     15       3         9.27     0.10E-03  ( 15)    0.22E-02
     16       3         9.51     0.81E-04  ( 15)    0.20E-02
     17       3         9.24     0.64E-04  ( 15)    0.22E-02
     18       2         6.40     0.50E-04  ( 15)    0.20E-02
     19       2         6.41     0.39E-04  ( 15)    0.21E-02
     20       2         6.40     0.30E-04  ( 15)    0.20E-02
     21       2         6.40     0.26E-04  ( 15)    0.20E-02
     22       1         3.68     0.23E-04  ( 15)    0.20E-02
     23       1         3.78     0.21E-04  ( 15)    0.20E-02
     24       1         3.67     0.20E-04  ( 15)    0.20E-02
     25       1         3.68     0.19E-04  ( 15)    0.20E-02
     26       1         3.66     0.18E-04  ( 15)    0.20E-02
     27       1         3.67     0.18E-04  ( 15)    0.20E-02
     28       1         3.73     0.18E-04  ( 15)    0.20E-02
     29       1         3.71     0.16E-04  ( 15)    0.20E-02
     30       1         3.66     0.15E-04  ( 15)    0.20E-02
     31       1         3.65     0.14E-04  ( 15)    0.20E-02
     32       1         3.67     0.12E-04  ( 15)    0.20E-02
     33       1         3.67     0.10E-04  ( 15)    0.20E-02
     34       1         3.67     0.85E-05  ( 15)    0.20E-02
     35       1         3.65     0.66E-05  ( 15)    0.20E-02
     36       1         3.67     0.54E-05  ( 15)    0.20E-02
     37       1         3.68     0.47E-05  ( 15)    0.20E-02
     38       1         3.67     0.42E-05  ( 15)    0.20E-02
     39       1         3.70     0.40E-05  ( 15)    0.20E-02
     40       1         3.81     0.38E-05  ( 15)    0.20E-02
     41       1         3.66     0.37E-05  ( 15)    0.20E-02
     42       1         3.67     0.36E-05  ( 15)    0.20E-02
     43       1         3.65     0.34E-05  ( 15)    0.20E-02
     44       1         3.66     0.30E-05  ( 15)    0.20E-02
     45       1         3.69     0.27E-05  ( 15)    0.20E-02
     46       1         3.68     0.26E-05  ( 15)    0.20E-02
     47       1         3.64     0.22E-05  ( 15)    0.20E-02
     48       1         3.67     0.19E-05  ( 15)    0.20E-02
     49       1         3.68     0.13E-05  ( 15)    0.20E-02
     50       1         3.67     0.10E-05  ( 15)    0.20E-02
     51       1         3.66     0.84E-06  ( 15)    0.20E-02
    --------------------------------------
    converged in  51 iterations

   Total time        548.12 minutes


 ===========================================





 +================================================================================+
 | sym | multi | state |          ADC(2) excitation energies    |  %t1   |  %t2   |
 |     |       |       +----------------------------------------+--------+--------+
 |     |       |       |   Hartree    |    eV      |    cm-1    |    %   |    %   |
 +================================================================================+
 | a   |   1   |   1   |    0.1385364 |    3.76977 |  30405.221 |  89.74 |  10.26 |
 | a   |   1   |   2   |    0.1608362 |    4.37658 |  35299.473 |  88.35 |  11.65 |
 | a   |   1   |   3   |    0.1631756 |    4.44023 |  35812.898 |  90.14 |   9.86 |
 | a   |   1   |   4   |    0.1749483 |    4.76059 |  38396.717 |  89.47 |  10.53 |
 | a   |   1   |   5   |    0.2063086 |    5.61394 |  45279.498 |  88.94 |  11.06 |
 | a   |   1   |   6   |    0.2092962 |    5.69524 |  45935.213 |  91.97 |   8.03 |
 | a   |   1   |   7   |    0.2229949 |    6.06800 |  48941.719 |  88.85 |  11.15 |
 | a   |   1   |   8   |    0.2383854 |    6.48680 |  52319.555 |  91.38 |   8.62 |
 | a   |   1   |   9   |    0.2396390 |    6.52091 |  52594.675 |  89.82 |  10.18 |
 | a   |   1   |  10   |    0.2428987 |    6.60961 |  53310.110 |  91.40 |   8.60 |
 | a   |   1   |  11   |    0.2491748 |    6.78039 |  54687.545 |  83.45 |  16.55 |
 | a   |   1   |  12   |    0.2578552 |    7.01660 |  56592.678 |  90.93 |   9.07 |
 | a   |   1   |  13   |    0.2646977 |    7.20279 |  58094.420 |  84.38 |  15.62 |
 | a   |   1   |  14   |    0.2654190 |    7.22242 |  58252.743 |  91.65 |   8.35 |
 | a   |   1   |  15   |    0.2723840 |    7.41195 |  59781.380 |  90.79 |   9.21 |
 +================================================================================+


       Energy:     0.1385364 H      3.76977 eV    30405.221 cm-1

     +=======================================================================+
     | type: RE0                    symmetry: a               state:    1    |
     +-----------------------+-----------------------+-----------------------+
     | occ. orb.  index spin | vir. orb.  index spin |  coeff/|amp|     %    |
     +=======================+=======================+=======================+
     |   37 a       37       |   41 a       41       |   0.89386      79.9   |
     |   37 a       37       |   57 a       57       |   0.23759       5.6   |
     |   37 a       37       |   54 a       54       |   0.22587       5.1   |
     |   37 a       37       |   59 a       59       |  -0.13587       1.8   |
     |   37 a       37       |   45 a       45       |  -0.12820       1.6   |
     |   37 a       37       |   50 a       50       |  -0.10559       1.1   |
     +=======================+=======================+=======================+
     norm of printed elements:  0.95250


       Energy:     0.1608362 H      4.37658 eV    35299.473 cm-1

     +=======================================================================+
     | type: RE0                    symmetry: a               state:    2    |
     +-----------------------+-----------------------+-----------------------+
     | occ. orb.  index spin | vir. orb.  index spin |  coeff/|amp|     %    |
     +=======================+=======================+=======================+
     |   40 a       40       |   41 a       41       |   0.94795      89.9   |
     |   39 a       39       |   45 a       45       |  -0.11928       1.4   |
     |   39 a       39       |   41 a       41       |   0.11215       1.3   |
     |   40 a       40       |   49 a       49       |  -0.10623       1.1   |
     |   40 a       40       |   45 a       45       |   0.10546       1.1   |
     |   40 a       40       |   57 a       57       |   0.06311       0.4   |
     +=======================+=======================+=======================+
     norm of printed elements:  0.95180


       Energy:     0.1631756 H      4.44023 eV    35812.898 cm-1

     +=======================================================================+
     | type: RE0                    symmetry: a               state:    3    |
     +-----------------------+-----------------------+-----------------------+
     | occ. orb.  index spin | vir. orb.  index spin |  coeff/|amp|     %    |
     +=======================+=======================+=======================+
     |   35 a       35       |   41 a       41       |   0.85027      72.3   |
     |   36 a       36       |   41 a       41       |   0.26491       7.0   |
     |   35 a       35       |   57 a       57       |   0.21324       4.5   |
     |   35 a       35       |   54 a       54       |   0.20550       4.2   |
     |   35 a       35       |   59 a       59       |  -0.12154       1.5   |
     |   35 a       35       |   45 a       45       |  -0.11685       1.4   |
     |   35 a       35       |   50 a       50       |  -0.09264       0.9   |
     |   32 a       32       |   41 a       41       |   0.09077       0.8   |
     |   34 a       34       |   41 a       41       |   0.08876       0.8   |
     |   35 a       35       |   42 a       42       |   0.07064       0.5   |
     |   35 a       35       |   49 a       49       |  -0.06782       0.5   |
     |   36 a       36       |   57 a       57       |   0.06547       0.4   |
     |   36 a       36       |   54 a       54       |   0.06336       0.4   |
     +=======================+=======================+=======================+
     norm of printed elements:  0.95185


       Energy:     0.1749483 H      4.76059 eV    38396.717 cm-1

     +=======================================================================+
     | type: RE0                    symmetry: a               state:    4    |
     +-----------------------+-----------------------+-----------------------+
     | occ. orb.  index spin | vir. orb.  index spin |  coeff/|amp|     %    |
     +=======================+=======================+=======================+
     |   40 a       40       |   45 a       45       |   0.74036      54.8   |
     |   39 a       39       |   41 a       41       |   0.56313      31.7   |
     |   40 a       40       |   41 a       41       |  -0.15314       2.3   |
     |   40 a       40       |   46 a       46       |  -0.12037       1.4   |
     |   39 a       39       |   49 a       49       |  -0.10318       1.1   |
     |   39 a       39       |   50 a       50       |   0.09829       1.0   |
     |   40 a       40       |   50 a       50       |  -0.08280       0.7   |
     |   40 a       40       |   59 a       59       |   0.08208       0.7   |
     |   39 a       39       |   57 a       57       |  -0.07757       0.6   |
     |   40 a       40       |   57 a       57       |   0.06541       0.4   |
     |   40 a       40       |   76 a       76       |   0.05416       0.3   |
     |   39 a       39       |   59 a       59       |   0.05398       0.3   |
     +=======================+=======================+=======================+
     norm of printed elements:  0.95324


       Energy:     0.2063086 H      5.61394 eV    45279.498 cm-1

     +=======================================================================+
     | type: RE0                    symmetry: a               state:    5    |
     +-----------------------+-----------------------+-----------------------+
     | occ. orb.  index spin | vir. orb.  index spin |  coeff/|amp|     %    |
     +=======================+=======================+=======================+
     |   39 a       39       |   41 a       41       |  -0.64345      41.4   |
     |   38 a       38       |   41 a       41       |   0.48887      23.9   |
     |   40 a       40       |   45 a       45       |   0.44403      19.7   |
     |   40 a       40       |   42 a       42       |  -0.20843       4.3   |
     |   36 a       36       |   45 a       45       |   0.08931       0.8   |
     |   38 a       38       |   57 a       57       |   0.08165       0.7   |
     |   38 a       38       |   54 a       54       |   0.07962       0.6   |
     |   40 a       40       |   46 a       46       |  -0.07190       0.5   |
     |   38 a       38       |   50 a       50       |  -0.06756       0.5   |
     |   38 a       38       |   45 a       45       |  -0.06107       0.4   |
     |   39 a       39       |   57 a       57       |  -0.06004       0.4   |
     |   39 a       39       |   54 a       54       |  -0.05782       0.3   |
     |   40 a       40       |   44 a       44       |  -0.05628       0.3   |
     |   40 a       40       |   54 a       54       |  -0.05306       0.3   |
     |   38 a       38       |   59 a       59       |  -0.04722       0.2   |
     |   36 a       36       |   42 a       42       |  -0.04487       0.2   |
     |   40 a       40       |   49 a       49       |  -0.04459       0.2   |
     |   39 a       39       |   42 a       42       |  -0.04159       0.2   |
     |   39 a       39       |   49 a       49       |   0.04121       0.2   |
     |   38 a       38       |   42 a       42       |   0.04019       0.2   |
     +=======================+=======================+=======================+
     norm of printed elements:  0.95227


       Energy:     0.2092962 H      5.69524 eV    45935.213 cm-1

     +=======================================================================+
     | type: RE0                    symmetry: a               state:    6    |
     +-----------------------+-----------------------+-----------------------+
     | occ. orb.  index spin | vir. orb.  index spin |  coeff/|amp|     %    |
     +=======================+=======================+=======================+
     |   40 a       40       |   42 a       42       |   0.86729      75.2   |
     |   36 a       36       |   42 a       42       |   0.18678       3.5   |
     |   40 a       40       |   43 a       43       |   0.15878       2.5   |
     |   40 a       40       |   48 a       48       |  -0.15384       2.4   |
     |   38 a       38       |   41 a       41       |   0.13672       1.9   |
     |   40 a       40       |   65 a       65       |  -0.13041       1.7   |
     |   40 a       40       |   45 a       45       |   0.12074       1.5   |
     |   40 a       40       |   44 a       44       |   0.12031       1.4   |
     |   39 a       39       |   41 a       41       |  -0.11536       1.3   |
     |   40 a       40       |   67 a       67       |  -0.08492       0.7   |
     |   36 a       36       |   44 a       44       |   0.07279       0.5   |
     |   40 a       40       |   62 a       62       |  -0.07133       0.5   |
     |   40 a       40       |   63 a       63       |   0.07032       0.5   |
     |   33 a       33       |   42 a       42       |   0.06939       0.5   |
     |   40 a       40       |   69 a       69       |  -0.06933       0.5   |
     |   40 a       40       |   64 a       64       |   0.06276       0.4   |
     +=======================+=======================+=======================+
     norm of printed elements:  0.95012


       Energy:     0.2229949 H      6.06800 eV    48941.719 cm-1

     +=======================================================================+
     | type: RE0                    symmetry: a               state:    7    |
     +-----------------------+-----------------------+-----------------------+
     | occ. orb.  index spin | vir. orb.  index spin |  coeff/|amp|     %    |
     +=======================+=======================+=======================+
     |   38 a       38       |   41 a       41       |   0.77496      60.1   |
     |   39 a       39       |   41 a       41       |   0.40552      16.4   |
     |   40 a       40       |   45 a       45       |  -0.29768       8.9   |
     |   36 a       36       |   45 a       45       |  -0.13473       1.8   |
     |   38 a       38       |   54 a       54       |   0.11301       1.3   |
     |   38 a       38       |   57 a       57       |   0.11080       1.2   |
     |   40 a       40       |   54 a       54       |   0.09679       0.9   |
     |   38 a       38       |   50 a       50       |  -0.08914       0.8   |
     |   38 a       38       |   45 a       45       |  -0.07646       0.6   |
     |   38 a       38       |   59 a       59       |  -0.06430       0.4   |
     |   38 a       38       |   42 a       42       |   0.06171       0.4   |
     |   37 a       37       |   44 a       44       |   0.04649       0.2   |
     |   36 a       36       |   41 a       41       |  -0.04317       0.2   |
     |   35 a       35       |   45 a       45       |   0.04230       0.2   |
     |   37 a       37       |   47 a       47       |  -0.04083       0.2   |
     |   37 a       37       |  123 a      123       |   0.04079       0.2   |
     |   40 a       40       |   49 a       49       |   0.04030       0.2   |
     |   39 a       39       |   49 a       49       |  -0.04024       0.2   |
     |   38 a       38       |   79 a       79       |   0.03880       0.2   |
     |   40 a       40       |   46 a       46       |   0.03715       0.1   |
     +=======================+=======================+=======================+
     norm of printed elements:  0.94320


       Energy:     0.2383854 H      6.48680 eV    52319.555 cm-1

     +=======================================================================+
     | type: RE0                    symmetry: a               state:    8    |
     +-----------------------+-----------------------+-----------------------+
     | occ. orb.  index spin | vir. orb.  index spin |  coeff/|amp|     %    |
     +=======================+=======================+=======================+
     |   40 a       40       |   43 a       43       |   0.84100      70.7   |
     |   40 a       40       |   46 a       46       |   0.21732       4.7   |
     |   40 a       40       |   42 a       42       |  -0.21306       4.5   |
     |   40 a       40       |   60 a       60       |  -0.18462       3.4   |
     |   40 a       40       |   65 a       65       |  -0.17048       2.9   |
     |   40 a       40       |   48 a       48       |  -0.13747       1.9   |
     |   36 a       36       |   43 a       43       |   0.12269       1.5   |
     |   40 a       40       |   69 a       69       |   0.10453       1.1   |
     |   39 a       39       |   42 a       42       |   0.10435       1.1   |
     |   40 a       40       |   71 a       71       |  -0.09138       0.8   |
     |   40 a       40       |   72 a       72       |   0.07959       0.6   |
     |   40 a       40       |   63 a       63       |   0.06730       0.5   |
     |   40 a       40       |   51 a       51       |   0.06492       0.4   |
     |   36 a       36       |   46 a       46       |   0.06409       0.4   |
     |   40 a       40       |   53 a       53       |   0.05643       0.3   |
     |   40 a       40       |   57 a       57       |  -0.05574       0.3   |
     +=======================+=======================+=======================+
     norm of printed elements:  0.95264


       Energy:     0.2396390 H      6.52091 eV    52594.675 cm-1

     +=======================================================================+
     | type: RE0                    symmetry: a               state:    9    |
     +-----------------------+-----------------------+-----------------------+
     | occ. orb.  index spin | vir. orb.  index spin |  coeff/|amp|     %    |
     +=======================+=======================+=======================+
     |   40 a       40       |   50 a       50       |  -0.43372      18.8   |
     |   40 a       40       |   57 a       57       |   0.40740      16.6   |
     |   40 a       40       |   54 a       54       |   0.37714      14.2   |
     |   39 a       39       |   45 a       45       |   0.32701      10.7   |
     |   40 a       40       |   44 a       44       |   0.32225      10.4   |
     |   36 a       36       |   41 a       41       |  -0.23658       5.6   |
     |   40 a       40       |   52 a       52       |   0.16681       2.8   |
     |   40 a       40       |   47 a       47       |   0.15987       2.6   |
     |   40 a       40       |   59 a       59       |  -0.13946       1.9   |
     |   40 a       40       |   49 a       49       |   0.10222       1.0   |
     |   40 a       40       |   51 a       51       |  -0.10206       1.0   |
     |   40 a       40       |   43 a       43       |   0.09892       1.0   |
     |   40 a       40       |   48 a       48       |   0.09844       1.0   |
     |   40 a       40       |   42 a       42       |  -0.08845       0.8   |
     |   40 a       40       |   61 a       61       |   0.08495       0.7   |
     |   39 a       39       |   41 a       41       |  -0.07636       0.6   |
     |   35 a       35       |   41 a       41       |   0.07351       0.5   |
     |   40 a       40       |   69 a       69       |   0.07342       0.5   |
     |   40 a       40       |   68 a       68       |   0.07216       0.5   |
     |   40 a       40       |   63 a       63       |  -0.07175       0.5   |
     +=======================+=======================+=======================+
     norm of printed elements:  0.91827


       Energy:     0.2428987 H      6.60961 eV    53310.110 cm-1

     +=======================================================================+
     | type: RE0                    symmetry: a               state:   10    |
     +-----------------------+-----------------------+-----------------------+
     | occ. orb.  index spin | vir. orb.  index spin |  coeff/|amp|     %    |
     +=======================+=======================+=======================+
     |   40 a       40       |   44 a       44       |   0.76020      57.8   |
     |   40 a       40       |   47 a       47       |   0.30248       9.1   |
     |   40 a       40       |   48 a       48       |   0.26928       7.3   |
     |   40 a       40       |   50 a       50       |   0.18893       3.6   |
     |   40 a       40       |   57 a       57       |  -0.17044       2.9   |
     |   39 a       39       |   45 a       45       |  -0.16634       2.8   |
     |   40 a       40       |   54 a       54       |  -0.14668       2.2   |
     |   40 a       40       |   70 a       70       |  -0.10976       1.2   |
     |   36 a       36       |   41 a       41       |   0.09590       0.9   |
     |   40 a       40       |   42 a       42       |  -0.09477       0.9   |
     |   40 a       40       |   69 a       69       |   0.09373       0.9   |
     |   36 a       36       |   44 a       44       |   0.08956       0.8   |
     |   40 a       40       |   46 a       46       |  -0.08879       0.8   |
     |   36 a       36       |   42 a       42       |   0.08687       0.8   |
     |   39 a       39       |   42 a       42       |  -0.08282       0.7   |
     |   40 a       40       |   59 a       59       |   0.07473       0.6   |
     |   36 a       36       |   47 a       47       |   0.06902       0.5   |
     |   40 a       40       |   52 a       52       |  -0.06045       0.4   |
     |   40 a       40       |   72 a       72       |  -0.05729       0.3   |
     |   40 a       40       |   49 a       49       |  -0.05279       0.3   |
     +=======================+=======================+=======================+
     norm of printed elements:  0.94524


       Energy:     0.2491748 H      6.78039 eV    54687.545 cm-1

     +=======================================================================+
     | type: RE0                    symmetry: a               state:   11    |
     +-----------------------+-----------------------+-----------------------+
     | occ. orb.  index spin | vir. orb.  index spin |  coeff/|amp|     %    |
     +=======================+=======================+=======================+
     |   37 a       37       |   45 a       45       |   0.93770      87.9   |
     |   37 a       37       |   41 a       41       |   0.16470       2.7   |
     |   37 a       37       |   46 a       46       |  -0.15540       2.4   |
     |   37 a       37       |   59 a       59       |   0.13721       1.9   |
     |   37 a       37       |   49 a       49       |  -0.08667       0.8   |
     +=======================+=======================+=======================+
     norm of printed elements:  0.95690


       Energy:     0.2578552 H      7.01660 eV    56592.678 cm-1

     +=======================================================================+
     | type: RE0                    symmetry: a               state:   12    |
     +-----------------------+-----------------------+-----------------------+
     | occ. orb.  index spin | vir. orb.  index spin |  coeff/|amp|     %    |
     +=======================+=======================+=======================+
     |   39 a       39       |   45 a       45       |   0.84131      70.8   |
     |   40 a       40       |   50 a       50       |   0.19123       3.7   |
     |   36 a       36       |   41 a       41       |   0.19061       3.6   |
     |   40 a       40       |   57 a       57       |  -0.14913       2.2   |
     |   39 a       39       |   46 a       46       |  -0.13902       1.9   |
     |   40 a       40       |   54 a       54       |  -0.13752       1.9   |
     |   39 a       39       |   42 a       42       |  -0.11996       1.4   |
     |   38 a       38       |   45 a       45       |  -0.11455       1.3   |
     |   40 a       40       |   41 a       41       |   0.09315       0.9   |
     |   39 a       39       |   59 a       59       |   0.08744       0.8   |
     |   33 a       33       |   45 a       45       |  -0.06981       0.5   |
     |   40 a       40       |   52 a       52       |  -0.06479       0.4   |
     |   39 a       39       |   41 a       41       |   0.06464       0.4   |
     |   39 a       39       |   50 a       50       |  -0.06450       0.4   |
     |   27 a       27       |   45 a       45       |   0.06447       0.4   |
     |   36 a       36       |   50 a       50       |   0.06401       0.4   |
     |   33 a       33       |   41 a       41       |   0.06260       0.4   |
     |   39 a       39       |   47 a       47       |   0.06131       0.4   |
     |   35 a       35       |   41 a       41       |  -0.05895       0.3   |
     |   39 a       39       |   57 a       57       |   0.05514       0.3   |
     +=======================+=======================+=======================+
     norm of printed elements:  0.92487


       Energy:     0.2646977 H      7.20279 eV    58094.420 cm-1

     +=======================================================================+
     | type: RE0                    symmetry: a               state:   13    |
     +-----------------------+-----------------------+-----------------------+
     | occ. orb.  index spin | vir. orb.  index spin |  coeff/|amp|     %    |
     +=======================+=======================+=======================+
     |   35 a       35       |   45 a       45       |   0.88650      78.6   |
     |   36 a       36       |   45 a       45       |   0.28372       8.0   |
     |   35 a       35       |   46 a       46       |  -0.14656       2.1   |
     |   35 a       35       |   41 a       41       |   0.14568       2.1   |
     |   35 a       35       |   59 a       59       |   0.12983       1.7   |
     |   39 a       39       |   42 a       42       |   0.09972       1.0   |
     |   35 a       35       |   49 a       49       |  -0.08174       0.7   |
     |   36 a       36       |   41 a       41       |   0.06116       0.4   |
     |   35 a       35       |   48 a       48       |  -0.05302       0.3   |
     |   35 a       35       |   47 a       47       |   0.05279       0.3   |
     +=======================+=======================+=======================+
     norm of printed elements:  0.95191


       Energy:     0.2654190 H      7.22242 eV    58252.743 cm-1

     +=======================================================================+
     | type: RE0                    symmetry: a               state:   14    |
     +-----------------------+-----------------------+-----------------------+
     | occ. orb.  index spin | vir. orb.  index spin |  coeff/|amp|     %    |
     +=======================+=======================+=======================+
     |   39 a       39       |   42 a       42       |   0.85887      73.8   |
     |   39 a       39       |   48 a       48       |  -0.21094       4.4   |
     |   39 a       39       |   44 a       44       |  -0.17969       3.2   |
     |   40 a       40       |   48 a       48       |   0.17969       3.2   |
     |   39 a       39       |   47 a       47       |  -0.13817       1.9   |
     |   39 a       39       |   65 a       65       |  -0.13716       1.9   |
     |   39 a       39       |   69 a       69       |  -0.11886       1.4   |
     |   39 a       39       |   45 a       45       |   0.10493       1.1   |
     |   39 a       39       |   43 a       43       |   0.10207       1.0   |
     |   35 a       35       |   45 a       45       |  -0.09576       0.9   |
     |   39 a       39       |   67 a       67       |  -0.06361       0.4   |
     |   39 a       39       |   63 a       63       |   0.06185       0.4   |
     |   27 a       27       |   42 a       42       |   0.06037       0.4   |
     |   39 a       39       |   62 a       62       |  -0.05997       0.4   |
     |   40 a       40       |   43 a       43       |  -0.05894       0.3   |
     |   39 a       39       |   70 a       70       |   0.05493       0.3   |
     +=======================+=======================+=======================+
     norm of printed elements:  0.95097


       Energy:     0.2723840 H      7.41195 eV    59781.380 cm-1

     +=======================================================================+
     | type: RE0                    symmetry: a               state:   15    |
     +-----------------------+-----------------------+-----------------------+
     | occ. orb.  index spin | vir. orb.  index spin |  coeff/|amp|     %    |
     +=======================+=======================+=======================+
     |   40 a       40       |   48 a       48       |   0.69433      48.2   |
     |   40 a       40       |   44 a       44       |  -0.31871      10.2   |
     |   36 a       36       |   41 a       41       |   0.22176       4.9   |
     |   40 a       40       |   43 a       43       |   0.21925       4.8   |
     |   40 a       40       |   47 a       47       |   0.20458       4.2   |
     |   40 a       40       |   60 a       60       |   0.20292       4.1   |
     |   40 a       40       |   55 a       55       |  -0.16338       2.7   |
     |   39 a       39       |   42 a       42       |  -0.13201       1.7   |
     |   40 a       40       |   42 a       42       |   0.12624       1.6   |
     |   40 a       40       |   50 a       50       |  -0.12322       1.5   |
     |   40 a       40       |   52 a       52       |  -0.11327       1.3   |
     |   40 a       40       |   67 a       67       |   0.11258       1.3   |
     |   40 a       40       |   53 a       53       |  -0.08640       0.7   |
     |   40 a       40       |   65 a       65       |   0.08590       0.7   |
     |   40 a       40       |   72 a       72       |  -0.07639       0.6   |
     |   40 a       40       |   80 a       80       |  -0.07590       0.6   |
     |   40 a       40       |   70 a       70       |  -0.07474       0.6   |
     |   40 a       40       |   62 a       62       |  -0.07350       0.5   |
     |   39 a       39       |   48 a       48       |   0.07024       0.5   |
     |   36 a       36       |   48 a       48       |   0.06977       0.5   |
     +=======================+=======================+=======================+
     norm of printed elements:  0.91192



     Info: copy ADC(2) right eigenvectors into left eigenvector files.


                    ========   CC DENSITY MODULE   ========

                      current wave-function model: ADC(2)  

  calculating overlap between   15 left and right vector(s)
    density nr.      cpu/min        wall/min    L     R
   ------------------------------------------------------
         1             2.72            2.76    LE0    RE0 
         2             2.72            2.76    LE0    RE0 
         3             2.71            2.76    LE0    RE0 
         4             2.72            2.77    LE0    RE0 
         5             2.71            2.76    LE0    RE0 
         6             2.72            2.76    LE0    RE0 
         7             2.72            2.77    LE0    RE0 
         8             2.72            2.76    LE0    RE0 
         9             2.72            2.76    LE0    RE0 
        10             2.71            2.76    LE0    RE0 
        11             2.72            2.76    LE0    RE0 
        12             2.73            2.77    LE0    RE0 
        13             2.73            2.78    LE0    RE0 
        14             2.72            2.76    LE0    RE0 
        15             2.72            2.76    LE0    RE0 
   ------------------------------------------------------
     time in cc_1den       cpu: 40 min 47 s  wall: 41 min 28 s  ratio:  1.0



     +==========================================================+
     |   contributions of excitation levels to excited states   |
     |     wavefunctions as computed from the <L|R> overlap     |
     +----------------------------------------------------------+
     | sym | multi | state |    E / eV  | % singles | % doubles |
     +==========================================================+
     | a   |   1   |   1   |    3.76977 |   89.74   |   10.26   |
     | a   |   1   |   2   |    4.37658 |   88.35   |   11.65   |
     | a   |   1   |   3   |    4.44023 |   90.14   |    9.86   |
     | a   |   1   |   4   |    4.76059 |   89.47   |   10.53   |
     | a   |   1   |   5   |    5.61394 |   88.94   |   11.06   |
     | a   |   1   |   6   |    5.69524 |   91.97   |    8.03   |
     | a   |   1   |   7   |    6.06800 |   88.85   |   11.15   |
     | a   |   1   |   8   |    6.48680 |   91.38   |    8.62   |
     | a   |   1   |   9   |    6.52091 |   89.82   |   10.18   |
     | a   |   1   |  10   |    6.60961 |   91.40   |    8.60   |
     | a   |   1   |  11   |    6.78039 |   83.45   |   16.55   |
     | a   |   1   |  12   |    7.01660 |   90.93   |    9.07   |
     | a   |   1   |  13   |    7.20279 |   84.38   |   15.62   |
     | a   |   1   |  14   |    7.22242 |   91.65   |    8.35   |
     | a   |   1   |  15   |    7.41195 |   90.79   |    9.21   |
     +==========================================================+



      The semi-canonical algorithm will be used for densities


                    ========   CC DENSITY MODULE   ========

                      current wave-function model: ADC(2)  

  calculating    15 xi densities

   a semicanonical algorithm will be used

    density nr.      cpu/min        wall/min    L     R
   ------------------------------------------------------
         1             4.64            4.80    LE0    R0  
         2             4.66            4.81    LE0    R0  
         3             4.69            4.85    LE0    R0  
         4             4.70            4.98    LE0    R0  
         5             4.67            4.87    LE0    R0  
         6             4.63            4.79    LE0    R0  
         7             4.69            4.85    LE0    R0  
         8             4.65            4.80    LE0    R0  
         9             4.70            4.86    LE0    R0  
        10             4.68            4.84    LE0    R0  
        11             4.65            4.81    LE0    R0  
        12             4.62            4.77    LE0    R0  
        13             4.71            4.86    LE0    R0  
        14             4.69            4.85    LE0    R0  
        15             4.71            4.86    LE0    R0  
   ------------------------------------------------------
     time in cc_1den       cpu:  1 h 10 min  wall:  1 h 12 min  ratio:  1.0


 **************************************************************
 *                                                            *
 *<<<<<<<<<<<<  ONE-PHOTON ABSORPTION STRENGTHS  >>>>>>>>>>>>>*
 *                                                            *
 **************************************************************



  +=========================================================================+
  |  Transition                                             model: ADC(2)   |
  |    number, symmetry, multiplicity:    1 a    1                          |
  |    frequency :   0.1385363787 a.u.     3.76977 e.V.     30405.2 rcm     |
  +=========================================================================+

     +-----------+-----------------+-----------------+---------------------+
     | operator  |   left moment   |  right moment   | transition strength |
     +-----------+-----------------+-----------------+---------------------+
     | xdiplen   |     -0.00500859 |     -0.00500859 |       0.00002509    |
     | ydiplen   |     -0.00052634 |     -0.00052634 |       0.00000028    |
     | zdiplen   |     -0.00028576 |     -0.00028576 |       0.00000008    |
     | xdipvel   |     -0.00069624 |      0.00069624 |       0.00000048    |
     | ydipvel   |     -0.00007916 |      0.00007916 |       0.00000001    |
     | zdipvel   |      0.00000123 |     -0.00000123 |       0.00000000    |
     | xangmom   |      0.55908352 |     -0.55908352 |       0.31257438    |
     | yangmom   |      0.07564165 |     -0.07564165 |       0.00572166    |
     | zangmom   |      0.00059713 |     -0.00059713 |       0.00000036    |
     +-----------+-----------------+-----------------+---------------------+
 
       oscillator strength (length gauge)   :      0.00000235
       oscillator strength (velocity gauge) :      0.00000236
       oscillator strength (mixed gauge)    :      0.00000235
 
       rotator strength (length gauge)      :     -0.00142010 a.u.
       Rotator strength (length gauge)      :     -0.66949797 10^(-40)*erg*cm^3
       rotator strength (velocity gauge)    :     -0.00142650 a.u.
       Rotator strength (velocity gauge)    :     -0.67251433 10^(-40)*erg*cm^3
 


  +=========================================================================+
  |  Transition                                             model: ADC(2)   |
  |    number, symmetry, multiplicity:    2 a    1                          |
  |    frequency :   0.1608362355 a.u.     4.37658 e.V.     35299.5 rcm     |
  +=========================================================================+

     +-----------+-----------------+-----------------+---------------------+
     | operator  |   left moment   |  right moment   | transition strength |
     +-----------+-----------------+-----------------+---------------------+
     | xdiplen   |     -1.93487009 |     -1.93487009 |       3.74372226    |
     | ydiplen   |     -0.25094712 |     -0.25094712 |       0.06297446    |
     | zdiplen   |     -0.01892282 |     -0.01892282 |       0.00035807    |
     | xdipvel   |     -0.30607541 |      0.30607541 |       0.09368216    |
     | ydipvel   |     -0.03971058 |      0.03971058 |       0.00157693    |
     | zdipvel   |     -0.00464942 |      0.00464942 |       0.00002162    |
     | xangmom   |     -0.00265155 |      0.00265155 |       0.00000703    |
     | yangmom   |     -0.00317366 |      0.00317366 |       0.00001007    |
     | zangmom   |      0.12197278 |     -0.12197278 |       0.01487736    |
     +-----------+-----------------+-----------------+---------------------+
 
       oscillator strength (length gauge)   :      0.40820824
       oscillator strength (velocity gauge) :      0.39493881
       oscillator strength (mixed gauge)    :      0.40151293
 
       rotator strength (length gauge)      :      0.00180937 a.u.
       Rotator strength (length gauge)      :      0.85301765 10^(-40)*erg*cm^3
       rotator strength (velocity gauge)    :      0.00115178 a.u.
       Rotator strength (velocity gauge)    :      0.54300157 10^(-40)*erg*cm^3
 


  +=========================================================================+
  |  Transition                                             model: ADC(2)   |
  |    number, symmetry, multiplicity:    3 a    1                          |
  |    frequency :   0.1631755695 a.u.     4.44023 e.V.     35812.9 rcm     |
  +=========================================================================+

     +-----------+-----------------+-----------------+---------------------+
     | operator  |   left moment   |  right moment   | transition strength |
     +-----------+-----------------+-----------------+---------------------+
     | xdiplen   |     -0.01729771 |     -0.01729771 |       0.00029921    |
     | ydiplen   |     -0.00159320 |     -0.00159320 |       0.00000254    |
     | zdiplen   |      0.06468736 |      0.06468736 |       0.00418445    |
     | xdipvel   |     -0.00274606 |      0.00274606 |       0.00000754    |
     | ydipvel   |     -0.00023817 |      0.00023817 |       0.00000006    |
     | zdipvel   |      0.01499575 |     -0.01499575 |       0.00022487    |
     | xangmom   |      0.16116652 |     -0.16116652 |       0.02597465    |
     | yangmom   |     -1.11337284 |      1.11337284 |       1.23959908    |
     | zangmom   |      0.00488168 |     -0.00488168 |       0.00002383    |
     +-----------+-----------------+-----------------+---------------------+
 
       oscillator strength (length gauge)   :      0.00048803
       oscillator strength (velocity gauge) :      0.00094977
       oscillator strength (mixed gauge)    :      0.00067861
 
       rotator strength (length gauge)      :     -0.00034910 a.u.
       Rotator strength (length gauge)      :     -0.16458042 10^(-40)*erg*cm^3
       rotator strength (velocity gauge)    :     -0.00031929 a.u.
       Rotator strength (velocity gauge)    :     -0.15052933 10^(-40)*erg*cm^3
 


  +=========================================================================+
  |  Transition                                             model: ADC(2)   |
  |    number, symmetry, multiplicity:    4 a    1                          |
  |    frequency :   0.1749483139 a.u.     4.76059 e.V.     38396.7 rcm     |
  +=========================================================================+

     +-----------+-----------------+-----------------+---------------------+
     | operator  |   left moment   |  right moment   | transition strength |
     +-----------+-----------------+-----------------+---------------------+
     | xdiplen   |      0.35981753 |      0.35981753 |       0.12946866    |
     | ydiplen   |      0.23803839 |      0.23803839 |       0.05666227    |
     | zdiplen   |      0.00367903 |      0.00367903 |       0.00001354    |
     | xdipvel   |      0.06124347 |     -0.06124347 |       0.00375076    |
     | ydipvel   |      0.04552466 |     -0.04552466 |       0.00207249    |
     | zdipvel   |      0.00128659 |     -0.00128659 |       0.00000166    |
     | xangmom   |     -0.00897838 |      0.00897838 |       0.00008061    |
     | yangmom   |      0.01239424 |     -0.01239424 |       0.00015362    |
     | zangmom   |      0.64969774 |     -0.64969774 |       0.42210716    |
     +-----------+-----------------+-----------------+---------------------+
 
       oscillator strength (length gauge)   :      0.02171044
       oscillator strength (velocity gauge) :      0.02219670
       oscillator strength (mixed gauge)    :      0.02191855
 
       rotator strength (length gauge)      :      0.00105499 a.u.
       Rotator strength (length gauge)      :      0.49736967 10^(-40)*erg*cm^3
       rotator strength (velocity gauge)    :      0.00243006 a.u.
       Rotator strength (velocity gauge)    :      1.14563470 10^(-40)*erg*cm^3
 


  +=========================================================================+
  |  Transition                                             model: ADC(2)   |
  |    number, symmetry, multiplicity:    5 a    1                          |
  |    frequency :   0.2063085733 a.u.     5.61394 e.V.     45279.5 rcm     |
  +=========================================================================+

     +-----------+-----------------+-----------------+---------------------+
     | operator  |   left moment   |  right moment   | transition strength |
     +-----------+-----------------+-----------------+---------------------+
     | xdiplen   |     -0.21287895 |     -0.21287895 |       0.04531745    |
     | ydiplen   |      0.25393333 |      0.25393333 |       0.06448214    |
     | zdiplen   |      0.02065207 |      0.02065207 |       0.00042651    |
     | xdipvel   |     -0.04118556 |      0.04118556 |       0.00169625    |
     | ydipvel   |      0.01915009 |     -0.01915009 |       0.00036673    |
     | zdipvel   |      0.00806158 |     -0.00806158 |       0.00006499    |
     | xangmom   |      0.00207134 |     -0.00207134 |       0.00000429    |
     | yangmom   |      0.11854458 |     -0.11854458 |       0.01405282    |
     | zangmom   |     -0.63443689 |      0.63443689 |       0.40251016    |
     +-----------+-----------------+-----------------+---------------------+
 
       oscillator strength (length gauge)   :      0.01516039
       oscillator strength (velocity gauge) :      0.00687632
       oscillator strength (mixed gauge)    :      0.00919792
 
       rotator strength (length gauge)      :      0.00827952 a.u.
       Rotator strength (length gauge)      :      3.90332672 10^(-40)*erg*cm^3
       rotator strength (velocity gauge)    :     -0.00710037 a.u.
       Rotator strength (velocity gauge)    :     -3.34742493 10^(-40)*erg*cm^3
 


  +=========================================================================+
  |  Transition                                             model: ADC(2)   |
  |    number, symmetry, multiplicity:    6 a    1                          |
  |    frequency :   0.2092962301 a.u.     5.69524 e.V.     45935.2 rcm     |
  +=========================================================================+

     +-----------+-----------------+-----------------+---------------------+
     | operator  |   left moment   |  right moment   | transition strength |
     +-----------+-----------------+-----------------+---------------------+
     | xdiplen   |     -0.03813523 |     -0.03813523 |       0.00145430    |
     | ydiplen   |      0.00499843 |      0.00499843 |       0.00002498    |
     | zdiplen   |     -0.12757160 |     -0.12757160 |       0.01627451    |
     | xdipvel   |     -0.00858863 |      0.00858863 |       0.00007376    |
     | ydipvel   |     -0.00660097 |      0.00660097 |       0.00004357    |
     | zdipvel   |     -0.04562101 |      0.04562101 |       0.00208128    |
     | xangmom   |     -0.06945906 |      0.06945906 |       0.00482456    |
     | yangmom   |     -0.58611216 |      0.58611216 |       0.34352746    |
     | zangmom   |     -0.18268918 |      0.18268918 |       0.03337534    |
     +-----------+-----------------+-----------------+---------------------+
 
       oscillator strength (length gauge)   :      0.00247720
       oscillator strength (velocity gauge) :      0.00700320
       oscillator strength (mixed gauge)    :      0.00407632
 
       rotator strength (length gauge)      :      0.01151257 a.u.
       Rotator strength (length gauge)      :      5.42752842 10^(-40)*erg*cm^3
       rotator strength (velocity gauge)    :      0.03057850 a.u.
       Rotator strength (velocity gauge)    :     14.41603881 10^(-40)*erg*cm^3
 


  +=========================================================================+
  |  Transition                                             model: ADC(2)   |
  |    number, symmetry, multiplicity:    7 a    1                          |
  |    frequency :   0.2229948818 a.u.     6.06800 e.V.     48941.7 rcm     |
  +=========================================================================+

     +-----------+-----------------+-----------------+---------------------+
     | operator  |   left moment   |  right moment   | transition strength |
     +-----------+-----------------+-----------------+---------------------+
     | xdiplen   |      0.34951382 |      0.34951382 |       0.12215991    |
     | ydiplen   |     -1.37371188 |     -1.37371188 |       1.88708433    |
     | zdiplen   |      0.01523550 |      0.01523550 |       0.00023212    |
     | xdipvel   |      0.07925429 |     -0.07925429 |       0.00628124    |
     | ydipvel   |     -0.29429562 |      0.29429562 |       0.08660991    |
     | zdipvel   |      0.00480605 |     -0.00480605 |       0.00002310    |
     | xangmom   |      0.00518462 |     -0.00518462 |       0.00002688    |
     | yangmom   |      0.03314085 |     -0.03314085 |       0.00109832    |
     | zangmom   |     -1.22247149 |      1.22247149 |       1.49443654    |
     +-----------+-----------------+-----------------+---------------------+
 
       oscillator strength (length gauge)   :      0.29873530
       oscillator strength (velocity gauge) :      0.27777695
       oscillator strength (mixed gauge)    :      0.28803406
 
       rotator strength (length gauge)      :     -0.03116942 a.u.
       Rotator strength (length gauge)      :    -14.69462427 10^(-40)*erg*cm^3
       rotator strength (velocity gauge)    :     -0.03412089 a.u.
       Rotator strength (velocity gauge)    :    -16.08607181 10^(-40)*erg*cm^3
 


  +=========================================================================+
  |  Transition                                             model: ADC(2)   |
  |    number, symmetry, multiplicity:    8 a    1                          |
  |    frequency :   0.2383854332 a.u.     6.48680 e.V.     52319.6 rcm     |
  +=========================================================================+

     +-----------+-----------------+-----------------+---------------------+
     | operator  |   left moment   |  right moment   | transition strength |
     +-----------+-----------------+-----------------+---------------------+
     | xdiplen   |      0.02285981 |      0.02285981 |       0.00052257    |
     | ydiplen   |     -0.06851153 |     -0.06851153 |       0.00469383    |
     | zdiplen   |     -0.07704632 |     -0.07704632 |       0.00593614    |
     | xdipvel   |      0.00267492 |     -0.00267492 |       0.00000716    |
     | ydipvel   |     -0.01548053 |      0.01548053 |       0.00023965    |
     | zdipvel   |     -0.02733065 |      0.02733065 |       0.00074696    |
     | xangmom   |      0.00920076 |     -0.00920076 |       0.00008465    |
     | yangmom   |     -0.30658164 |      0.30658164 |       0.09399230    |
     | zangmom   |     -0.00425327 |      0.00425327 |       0.00001809    |
     +-----------+-----------------+-----------------+---------------------+
 
       oscillator strength (length gauge)   :      0.00177240
       oscillator strength (velocity gauge) :      0.00277916
       oscillator strength (mixed gauge)    :      0.00215165
 
       rotator strength (length gauge)      :      0.01077120 a.u.
       Rotator strength (length gauge)      :      5.07801400 10^(-40)*erg*cm^3
       rotator strength (velocity gauge)    :      0.01025000 a.u.
       Rotator strength (velocity gauge)    :      4.83229693 10^(-40)*erg*cm^3
 


  +=========================================================================+
  |  Transition                                             model: ADC(2)   |
  |    number, symmetry, multiplicity:    9 a    1                          |
  |    frequency :   0.2396389738 a.u.     6.52091 e.V.     52594.7 rcm     |
  +=========================================================================+

     +-----------+-----------------+-----------------+---------------------+
     | operator  |   left moment   |  right moment   | transition strength |
     +-----------+-----------------+-----------------+---------------------+
     | xdiplen   |     -0.11622809 |     -0.11622809 |       0.01350897    |
     | ydiplen   |      0.24148268 |      0.24148268 |       0.05831388    |
     | zdiplen   |     -0.03842288 |     -0.03842288 |       0.00147632    |
     | xdipvel   |     -0.00862214 |      0.00862214 |       0.00007434    |
     | ydipvel   |      0.06369889 |     -0.06369889 |       0.00405755    |
     | zdipvel   |     -0.00784601 |      0.00784601 |       0.00006156    |
     | xangmom   |      0.00095568 |     -0.00095568 |       0.00000091    |
     | yangmom   |     -0.12958902 |      0.12958902 |       0.01679332    |
     | zangmom   |      0.13397441 |     -0.13397441 |       0.01794914    |
     +-----------+-----------------+-----------------+---------------------+
 
       oscillator strength (length gauge)   :      0.01171023
       oscillator strength (velocity gauge) :      0.01166602
       oscillator strength (mixed gauge)    :      0.01112385
 
       rotator strength (length gauge)      :     -0.01827613 a.u.
       Rotator strength (length gauge)      :     -8.61616490 10^(-40)*erg*cm^3
       rotator strength (velocity gauge)    :     -0.01943357 a.u.
       Rotator strength (velocity gauge)    :     -9.16183133 10^(-40)*erg*cm^3
 


  +=========================================================================+
  |  Transition                                             model: ADC(2)   |
  |    number, symmetry, multiplicity:   10 a    1                          |
  |    frequency :   0.2428987321 a.u.     6.60961 e.V.     53310.1 rcm     |
  +=========================================================================+

     +-----------+-----------------+-----------------+---------------------+
     | operator  |   left moment   |  right moment   | transition strength |
     +-----------+-----------------+-----------------+---------------------+
     | xdiplen   |      0.09488862 |      0.09488862 |       0.00900385    |
     | ydiplen   |     -0.03905068 |     -0.03905068 |       0.00152496    |
     | zdiplen   |     -0.14852597 |     -0.14852597 |       0.02205996    |
     | xdipvel   |      0.01125107 |     -0.01125107 |       0.00012659    |
     | ydipvel   |     -0.01434899 |      0.01434899 |       0.00020589    |
     | zdipvel   |     -0.03648132 |      0.03648132 |       0.00133089    |
     | xangmom   |      0.01907205 |     -0.01907205 |       0.00036374    |
     | yangmom   |     -0.44179254 |      0.44179254 |       0.19518064    |
     | zangmom   |     -0.03990768 |      0.03990768 |       0.00159262    |
     +-----------+-----------------+-----------------+---------------------+
 
       oscillator strength (length gauge)   :      0.00527718
       oscillator strength (velocity gauge) :      0.00456532
       oscillator strength (mixed gauge)    :      0.00469757
 
       rotator strength (length gauge)      :      0.01249467 a.u.
       Rotator strength (length gauge)      :      5.89053295 10^(-40)*erg*cm^3
       rotator strength (velocity gauge)    :      0.01648783 a.u.
       Rotator strength (velocity gauge)    :      7.77307961 10^(-40)*erg*cm^3
 


  +=========================================================================+
  |  Transition                                             model: ADC(2)   |
  |    number, symmetry, multiplicity:   11 a    1                          |
  |    frequency :   0.2491747884 a.u.     6.78039 e.V.     54687.5 rcm     |
  +=========================================================================+

     +-----------+-----------------+-----------------+---------------------+
     | operator  |   left moment   |  right moment   | transition strength |
     +-----------+-----------------+-----------------+---------------------+
     | xdiplen   |      0.00501204 |      0.00501204 |       0.00002512    |
     | ydiplen   |      0.00099951 |      0.00099951 |       0.00000100    |
     | zdiplen   |      0.01835623 |      0.01835623 |       0.00033695    |
     | xdipvel   |      0.00110406 |     -0.00110406 |       0.00000122    |
     | ydipvel   |      0.00032417 |     -0.00032417 |       0.00000011    |
     | zdipvel   |      0.00782116 |     -0.00782116 |       0.00006117    |
     | xangmom   |     -0.04301376 |      0.04301376 |       0.00185018    |
     | yangmom   |     -0.09349894 |      0.09349894 |       0.00874205    |
     | zangmom   |     -0.00140081 |      0.00140081 |       0.00000196    |
     +-----------+-----------------+-----------------+---------------------+
 
       oscillator strength (length gauge)   :      0.00006031
       oscillator strength (velocity gauge) :      0.00016720
       oscillator strength (mixed gauge)    :      0.00009962
 
       rotator strength (length gauge)      :     -0.00016738 a.u.
       Rotator strength (length gauge)      :     -0.07890874 10^(-40)*erg*cm^3
       rotator strength (velocity gauge)    :     -0.00017810 a.u.
       Rotator strength (velocity gauge)    :     -0.08396311 10^(-40)*erg*cm^3
 


  +=========================================================================+
  |  Transition                                             model: ADC(2)   |
  |    number, symmetry, multiplicity:   12 a    1                          |
  |    frequency :   0.2578552158 a.u.     7.01660 e.V.     56592.7 rcm     |
  +=========================================================================+

     +-----------+-----------------+-----------------+---------------------+
     | operator  |   left moment   |  right moment   | transition strength |
     +-----------+-----------------+-----------------+---------------------+
     | xdiplen   |     -1.73377991 |     -1.73377991 |       3.00599276    |
     | ydiplen   |     -0.56090127 |     -0.56090127 |       0.31461023    |
     | zdiplen   |     -0.01010881 |     -0.01010881 |       0.00010219    |
     | xdipvel   |     -0.41645013 |      0.41645013 |       0.17343071    |
     | ydipvel   |     -0.12300198 |      0.12300198 |       0.01512949    |
     | zdipvel   |     -0.00417396 |      0.00417396 |       0.00001742    |
     | xangmom   |     -0.04372780 |      0.04372780 |       0.00191212    |
     | yangmom   |     -0.05786807 |      0.05786807 |       0.00334871    |
     | zangmom   |     -0.32125622 |      0.32125622 |       0.10320556    |
     +-----------+-----------------+-----------------+---------------------+
 
       oscillator strength (length gauge)   :      0.57084077
       oscillator strength (velocity gauge) :      0.48755428
       oscillator strength (mixed gauge)    :      0.52737802
 
       rotator strength (length gauge)      :      0.05576008 a.u.
       Rotator strength (length gauge)      :     26.28773162 10^(-40)*erg*cm^3
       rotator strength (velocity gauge)    :      0.05171360 a.u.
       Rotator strength (velocity gauge)    :     24.38004333 10^(-40)*erg*cm^3
 


  +=========================================================================+
  |  Transition                                             model: ADC(2)   |
  |    number, symmetry, multiplicity:   13 a    1                          |
  |    frequency :   0.2646976548 a.u.     7.20279 e.V.     58094.4 rcm     |
  +=========================================================================+

     +-----------+-----------------+-----------------+---------------------+
     | operator  |   left moment   |  right moment   | transition strength |
     +-----------+-----------------+-----------------+---------------------+
     | xdiplen   |     -0.02505787 |     -0.02505787 |       0.00062790    |
     | ydiplen   |     -0.00539925 |     -0.00539925 |       0.00002915    |
     | zdiplen   |     -0.03922074 |     -0.03922074 |       0.00153827    |
     | xdipvel   |     -0.00657223 |      0.00657223 |       0.00004319    |
     | ydipvel   |     -0.00095722 |      0.00095722 |       0.00000092    |
     | zdipvel   |     -0.01128336 |      0.01128336 |       0.00012731    |
     | xangmom   |      0.14443700 |     -0.14443700 |       0.02086205    |
     | yangmom   |      0.16737169 |     -0.16737169 |       0.02801328    |
     | zangmom   |      0.00862325 |     -0.00862325 |       0.00007436    |
     +-----------+-----------------+-----------------+---------------------+
 
       oscillator strength (length gauge)   :      0.00038740
       oscillator strength (velocity gauge) :      0.00043175
       oscillator strength (mixed gauge)    :      0.00040826
 
       rotator strength (length gauge)      :     -0.00243059 a.u.
       Rotator strength (length gauge)      :     -1.14588508 10^(-40)*erg*cm^3
       rotator strength (velocity gauge)    :     -0.00227955 a.u.
       Rotator strength (velocity gauge)    :     -1.07468067 10^(-40)*erg*cm^3
 


  +=========================================================================+
  |  Transition                                             model: ADC(2)   |
  |    number, symmetry, multiplicity:   14 a    1                          |
  |    frequency :   0.2654190251 a.u.     7.22242 e.V.     58252.7 rcm     |
  +=========================================================================+

     +-----------+-----------------+-----------------+---------------------+
     | operator  |   left moment   |  right moment   | transition strength |
     +-----------+-----------------+-----------------+---------------------+
     | xdiplen   |     -0.16655487 |     -0.16655487 |       0.02774052    |
     | ydiplen   |     -0.02474751 |     -0.02474751 |       0.00061244    |
     | zdiplen   |     -0.05221235 |     -0.05221235 |       0.00272613    |
     | xdipvel   |     -0.04191033 |      0.04191033 |       0.00175648    |
     | ydipvel   |     -0.00465394 |      0.00465394 |       0.00002166    |
     | zdipvel   |     -0.01775122 |      0.01775122 |       0.00031511    |
     | xangmom   |      0.52771621 |     -0.52771621 |       0.27848440    |
     | yangmom   |     -0.05219223 |      0.05219223 |       0.00272403    |
     | zangmom   |     -0.01569690 |      0.01569690 |       0.00024639    |
     +-----------+-----------------+-----------------+---------------------+
 
       oscillator strength (length gauge)   :      0.00549932
       oscillator strength (velocity gauge) :      0.00525770
       oscillator strength (mixed gauge)    :      0.00534825
 
       rotator strength (length gauge)      :     -0.04289125 a.u.
       Rotator strength (length gauge)      :    -20.22080457 10^(-40)*erg*cm^3
       rotator strength (velocity gauge)    :     -0.04068138 a.u.
       Rotator strength (velocity gauge)    :    -19.17897418 10^(-40)*erg*cm^3
 


  +=========================================================================+
  |  Transition                                             model: ADC(2)   |
  |    number, symmetry, multiplicity:   15 a    1                          |
  |    frequency :   0.2723840103 a.u.     7.41195 e.V.     59781.4 rcm     |
  +=========================================================================+

     +-----------+-----------------+-----------------+---------------------+
     | operator  |   left moment   |  right moment   | transition strength |
     +-----------+-----------------+-----------------+---------------------+
     | xdiplen   |      0.14864585 |      0.14864585 |       0.02209559    |
     | ydiplen   |      0.03776915 |      0.03776915 |       0.00142651    |
     | zdiplen   |     -0.04997414 |     -0.04997414 |       0.00249741    |
     | xdipvel   |      0.02773352 |     -0.02773352 |       0.00076915    |
     | ydipvel   |      0.00880255 |     -0.00880255 |       0.00007748    |
     | zdipvel   |     -0.00938241 |      0.00938241 |       0.00008803    |
     | xangmom   |     -0.10907933 |      0.10907933 |       0.01189830    |
     | yangmom   |     -0.05577014 |      0.05577014 |       0.00311031    |
     | zangmom   |      0.10089574 |     -0.10089574 |       0.01017995    |
     +-----------+-----------------+-----------------+---------------------+
 
       oscillator strength (length gauge)   :      0.00472487
       oscillator strength (velocity gauge) :      0.00228761
       oscillator strength (mixed gauge)    :      0.00328254
 
       rotator strength (length gauge)      :     -0.01168138 a.u.
       Rotator strength (length gauge)      :     -5.50711090 10^(-40)*erg*cm^3
       rotator strength (velocity gauge)    :     -0.00819196 a.u.
       Rotator strength (velocity gauge)    :     -3.86204700 10^(-40)*erg*cm^3
 
 Exporting transition densities


    ------------------------------------------------------------------------
         total  cpu-time : 17 hours 54 minutes and 27 seconds
         total wall-time : 19 hours 41 minutes and 21 seconds
    ------------------------------------------------------------------------


   ****  ricc2 : all done  ****


    2023-01-20 16:54:12.384 

