 operating system is UNIX !
 hostname is         dlt06.abaxnet

 dscf (dlt06.abaxnet) : TURBOMOLE V6.6( 19103 ) 21 May 2014 at 15:45:05
 Copyright (C) 2014 TURBOMOLE GmbH, Karlsruhe


    2023-01-19 20:34:13.336 



                             d s c f - program

                   idea & directorship : reinhart ahlrichs
                   program development : marco haeser
                                         michael baer
                           dft version : oliver treutler


                          quantum chemistry group
                          universitaet  karlsruhe
                                  germany




                          References             
                                                 
          TURBOMOLE:                             
              R. Ahlrichs, M. Baer, M. Haeser, H. Horn, and
              C. Koelmel
              Electronic structure calculations on workstation
              computers: the program system TURBOMOLE
              Chem. Phys. Lett. 162: 165 (1989)
          Density Functional:                              
              O. Treutler and R. Ahlrichs                      
              Efficient Molecular Numerical Integration Schemes
              J. Chem. Phys. 102: 346 (1995)                   
          Parallel Version:                                
              Performance of parallel TURBOMOLE for Density    
              Functional Calculations                          
              M. v. Arnim and R. Ahlrichs                      
              J. Comp. Chem. 19: 1746 (1998)                   
                                         




              +--------------------------------------------------+
              | Atomic coordinate, charge and isotop information |
              +--------------------------------------------------+

                    atomic coordinates            atom    charge  isotop
          0.95811359    2.40423006   -0.03516190    c      6.000     0
          2.54518119    0.31999441   -0.03410365    c      6.000     0
          1.59659536   -2.11310357   -0.03238400    c      6.000     0
         -0.98163359   -2.48313085   -0.03633353    c      6.000     0
         -2.64852322   -0.43876842   -0.04151138    c      6.000     0
         -1.58591132    1.97805902   -0.03812877    c      6.000     0
          1.70793802    4.30074031   -0.02924706    h      1.000     0
          2.88865781   -3.69049577   -0.02909588    h      1.000     0
         -1.73875237   -4.38268356   -0.04391133    h      1.000     0
          5.26833323    0.72112658   -0.02928485    n      7.000     0
          6.62434402   -1.13123967   -0.02329442    o      8.000     0
          6.03070545    2.88722516   -0.03102340    o      8.000     0
         -5.21068950   -0.71748413   -0.11638233    n      7.000     0
         -5.95998481   -2.40678591    0.31122490    h      1.000     0
         -6.29223646    0.80285723    0.23472879    h      1.000     0
         -3.20213739    3.94945912   -0.02609121    f      9.000     0
 
       center of nuclear mass  :    0.84283027    0.60059678   -0.03568937
       center of nuclear charge:    0.78416524    0.52807287   -0.03188842

   *************************************************************************
   ADC(2) - opt by CAM-B3LYP gaussian                                       
   *************************************************************************



              +--------------------------------------------------+
              |               basis set information              |
              +--------------------------------------------------+

              we will work with the 1s 3p 5d 7f 9g ... basis set
              ...i.e. with spherical basis functions...

   type   atoms  prim   cont   basis
   ---------------------------------------------------------------------------
    c        6     52     37   def2-TZVPD   [6s3p3d1f|12s6p3d1f]
    h        5     11      9   def2-TZVPD   [3s2p|5s2p]
    n        2     52     37   def2-TZVPD   [6s3p3d1f|12s6p3d1f]
    o        2     55     40   def2-TZVPD   [6s4p3d1f|12s7p3d1f]
    f        1     55     40   def2-TZVPD   [6s4p3d1f|12s7p3d1f]
   ---------------------------------------------------------------------------
   total:   16    636    461
   ---------------------------------------------------------------------------

   total number of primitive shells          :   97
   total number of contracted shells         :  171
   total number of cartesian basis functions :  527
   total number of SCF-basis functions       :  461


 integral neglect threshold       :  0.63E-11
 integral storage threshold THIZE :  0.10E-04
 integral storage threshold THIME :         5


 DENSITY CONVERGENCE CHECK SWITCHED ON !
 SCF CONVERGENCE IF RMS(delta[D]) <     0.1000000000E-07


 symmetry group of the molecule :   c1 

 the group has the following generators :
   c1(z)

    1 symmetry operations found

 there are 1 real representations :   a   

 maximum number of shells which are related by symmetry :  1


    mo occupation :
   irrep   mo's   occupied
    a      461       40
 
 number of basis functions   :          461
 number of occupied orbitals :           40
 

          ------------------------
          nuclear repulsion energy  :   594.906481652    
          ------------------------

 
          -----------------
          -S,T+V- integrals
          -----------------

 1e-integrals will be neglected if expon. factor < 0.634148E-12
 
   Difference densities algorithm switched on.
   The maximal number of linear combinations of
   difference densities is          20 .

 automatic virtual orbital shift switched on 
      shift if e(lumo)-e(homo) < 0.10000000    


 DIIS switched on: error vector is FDS-SDF
 Max. Iterations for DIIS is     :   5
 DIIS matrix (see manual) 
    Scaling factor of diagonals  :  1.200
    threshold for scaling factor :  0.000

 scf convergence criterion : increment of total energy < .1000000D-06
                  and increment of one-electron energy < .1000000D-03


 <geterg> : there is no data group $energy 

  MOs are in ASCII format !


 reading orbital data $scfmo  from file mos . 

 orbital characterization : expanded
 
 mo provided and orthogonalized by Cholesky decomposition

 DSCF restart information will be dumped onto file mos

 
                                              current damping :  0.300
 ITERATION  ENERGY          1e-ENERGY        2e-ENERGY     RMS[dD(SAO)]   TOL
   1  -586.04139372263    -1972.0251495     791.07727413    0.000D+00 0.633D-11
          max. resid. norm for Fia-block=  3.950D-01 for orbital     26a         
          max. resid. fock norm         =  1.044D+01 for orbital    255a         
          Delta Eig. =  1210.6790258924 eV 
 
                                              current damping :  0.250
 ITERATION  ENERGY          1e-ENERGY        2e-ENERGY     RMS[dD(SAO)]   TOL
   2  -588.07037461698    -1984.5630288     801.58617251    0.696D-01 0.629D-11
          Norm of current diis error:  2.6078    
          max. resid. norm for Fia-block=  1.499D-01 for orbital     12a         
          max. resid. fock norm         =  3.515D-01 for orbital    356a         
          Delta Eig. =   281.0890770955 eV 
 
                                              current damping :  0.150
 ITERATION  ENERGY          1e-ENERGY        2e-ENERGY     RMS[dD(SAO)]   TOL
   3  -588.24840199433    -1985.6258436     802.47095993    0.122D-01 0.382D-11
          Norm of current diis error:  1.0259    
          max. resid. norm for Fia-block=  5.920D-02 for orbital     29a         
          max. resid. fock norm         =  6.961D-02 for orbital     29a         
          Delta Eig. =    65.2377182709 eV 
 
                                              current damping :  0.100
 ITERATION  ENERGY          1e-ENERGY        2e-ENERGY     RMS[dD(SAO)]   TOL
   4  -588.28997059265    -1985.8226652     802.62621297    0.428D-02 0.307D-11
          Norm of current diis error: 0.29070    
          max. resid. norm for Fia-block=  1.641D-02 for orbital     40a         
          max. resid. fock norm         =  2.111D-02 for orbital    455a         
          Delta Eig. =     8.0506873013 eV 
 
                                              current damping :  0.100
 ITERATION  ENERGY          1e-ENERGY        2e-ENERGY     RMS[dD(SAO)]   TOL
   5  -588.29440495410    -1986.0238286     802.82294201    0.109D-02 0.283D-11
          Norm of current diis error: 0.10109    
          max. resid. norm for Fia-block=  6.400D-03 for orbital     40a         
          max. resid. fock norm         =  1.327D-02 for orbital    455a         
 mo-orthogonalization: Cholesky decomposition
          Delta Eig. =     0.6679133709 eV 
 
                                              current damping :  0.150
 ITERATION  ENERGY          1e-ENERGY        2e-ENERGY     RMS[dD(SAO)]   TOL
   6  -588.29504883827    -1986.0120377     802.81050722    0.300D-03 0.268D-11
          Norm of current diis error: 0.38186E-01
          max. resid. norm for Fia-block=  3.433D-03 for orbital     40a         
          max. resid. fock norm         =  3.664D-03 for orbital     41a         
          Delta Eig. =     0.1983494492 eV 
 
                                              current damping :  0.100
 ITERATION  ENERGY          1e-ENERGY        2e-ENERGY     RMS[dD(SAO)]   TOL
   7  -588.29518731636    -1985.9946941     802.79302517    0.178D-03 0.254D-11
          Norm of current diis error: 0.16982E-01
          max. resid. norm for Fia-block=  1.789D-03 for orbital     40a         
          max. resid. fock norm         =  1.923D-03 for orbital     40a         
          Delta Eig. =     0.0567359613 eV 
 
                                              current damping :  0.150
 ITERATION  ENERGY          1e-ENERGY        2e-ENERGY     RMS[dD(SAO)]   TOL
   8  -588.29521926958    -1986.0033705     802.80166962    0.789D-04 0.243D-11
          Norm of current diis error: 0.55847E-02
          max. resid. norm for Fia-block=  6.657D-04 for orbital     40a         
          max. resid. fock norm         =  6.757D-04 for orbital     40a         
          Delta Eig. =     0.0197161005 eV 
 
                                              current damping :  0.200
 ITERATION  ENERGY          1e-ENERGY        2e-ENERGY     RMS[dD(SAO)]   TOL
   9  -588.29522303844    -1986.0001101     802.79840546    0.254D-04 0.235D-11
          Norm of current diis error: 0.20589E-02
          max. resid. norm for Fia-block=  2.335D-04 for orbital     40a         
          max. resid. fock norm         =  2.511D-04 for orbital     40a         
          Delta Eig. =     0.0071440664 eV 
 
                                              current damping :  0.250
 ITERATION  ENERGY          1e-ENERGY        2e-ENERGY     RMS[dD(SAO)]   TOL
  10  -588.29522349692    -1986.0004968     802.79879165    0.679D-05 0.229D-11
          Norm of current diis error: 0.91594E-03
          max. resid. norm for Fia-block=  1.101D-04 for orbital     40a         
          max. resid. fock norm         =  1.119D-04 for orbital     40a         
 mo-orthogonalization: Cholesky decomposition
          Delta Eig. =     0.0029981929 eV 
 
                                              current damping :  0.100
 ITERATION  ENERGY          1e-ENERGY        2e-ENERGY     RMS[dD(SAO)]   TOL
  11  -588.29522359296    -1986.0005511     802.79884582    0.313D-05 0.222D-11
          Norm of current diis error: 0.50682E-03
          max. resid. norm for Fia-block=  5.928D-05 for orbital     40a         
          max. resid. fock norm         =  6.101D-05 for orbital     40a         
          Delta Eig. =     0.0016058354 eV 
 
                                              current damping :  0.150
 ITERATION  ENERGY          1e-ENERGY        2e-ENERGY     RMS[dD(SAO)]   TOL
  12  -588.29522362657    -1986.0005275     802.79882220    0.209D-05 0.213D-11
          Norm of current diis error: 0.25144E-03
          max. resid. norm for Fia-block=  3.228D-05 for orbital     40a         
          max. resid. fock norm         =  3.290D-05 for orbital     40a         
          Delta Eig. =     0.0009254307 eV 
 
                                              current damping :  0.100
 ITERATION  ENERGY          1e-ENERGY        2e-ENERGY     RMS[dD(SAO)]   TOL
  13  -588.29522363447    -1986.0004856     802.79878027    0.106D-05 0.204D-11
          Norm of current diis error: 0.13665E-03
          max. resid. norm for Fia-block=  1.838D-05 for orbital     39a         
          max. resid. fock norm         =  1.843D-05 for orbital     39a         
          Delta Eig. =     0.0005755718 eV 
 
                                              current damping :  0.150
 ITERATION  ENERGY          1e-ENERGY        2e-ENERGY     RMS[dD(SAO)]   TOL
  14  -588.29522363661    -1986.0005249     802.79881966    0.718D-06 0.194D-11
          Norm of current diis error: 0.61367E-04
          max. resid. norm for Fia-block=  8.397D-06 for orbital     40a         
          max. resid. fock norm         =  1.725D-05 for orbital    193a         
          Delta Eig. =     0.0001671926 eV 
 
                                              current damping :  0.200
 ITERATION  ENERGY          1e-ENERGY        2e-ENERGY     RMS[dD(SAO)]   TOL
  15  -588.29522363635    -1986.0004966     802.79879133    0.552D-06 0.187D-11
          Norm of current diis error: 0.23662E-04
          max. resid. norm for Fia-block=  3.642D-06 for orbital     39a         
          max. resid. fock norm         =  1.016D-05 for orbital    193a         
 mo-orthogonalization: Cholesky decomposition
          Delta Eig. =     0.0001026173 eV 

 ENERGY & DENSITY CONVERGED !

 
                                              current damping :  0.250
 ITERATION  ENERGY          1e-ENERGY        2e-ENERGY     RMS[dD(SAO)]   TOL
  16  -588.29522363513    -1986.0004996     802.79879434    0.339D-06 0.181D-11
          max. resid. norm for Fia-block=  6.756D-07 for orbital     39a         
          max. resid. fock norm         =  1.903D-05 for orbital    195a         

 convergence criteria satisfied after 16 iterations


   *************************************************************************
   ADC(2) - opt by CAM-B3LYP gaussian                                       
   *************************************************************************


                  ------------------------------------------ 
                 |  total energy      =   -588.29522363513  |
                  ------------------------------------------ 
                 :  kinetic energy    =    587.75303988646  :
                 :  potential energy  =  -1176.04826352159  :
                 :  virial theorem    =      1.99907838152  :
                 :  wavefunction norm =      1.00000000000  :
                  .......................................... 


 <geterg> : there is no data group $energy 


 <skperg> : $end is missing 


 orbitals $scfmo  will be written to file mos

    irrep                 36a         37a         38a         39a         40a   
 eigenvalues H         -0.49300    -0.48961    -0.45301    -0.37753    -0.33448
            eV         -13.4153    -13.3232    -12.3272    -10.2731     -9.1016
 occupation              2.0000      2.0000      2.0000      2.0000      2.0000 

    irrep                 41a         42a         43a         44a         45a   
 eigenvalues H          0.04673     0.05574     0.07191     0.07668     0.09567
            eV           1.2716      1.5167      1.9567      2.0866      2.6035
 
 
 
 
 ==============================================================================
                           electrostatic moments
 ==============================================================================
 
              nuc           elec       ->  total
 ------------------------------------------------------------------------------
                          charge      
 ------------------------------------------------------------------------------
          80.000000     -80.000000      -0.000000
 
 ------------------------------------------------------------------------------
                       dipole moment  
 ------------------------------------------------------------------------------
   x      62.733220     -65.110720      -2.377501
   y      42.245829     -43.154038      -0.908208
   z      -2.551074       2.788602       0.237528
 
   | dipole moment | =     2.5561 a.u. =     6.4970 debye 
 
 ------------------------------------------------------------------------------
                     quadrupole moment
 ------------------------------------------------------------------------------
  xx    1330.669186   -1385.043066     -54.373880
  yy     406.029709    -450.891009     -44.861301
  zz       0.322245     -47.895674     -47.573430
  xy      33.128497     -31.833340       1.295157
  xz      -2.000448       0.378052      -1.622396
  yz      -1.347073       1.107171      -0.239902
 
     1/3  trace=     -48.936203
     anisotropy=       9.227509
 
 ==============================================================================
 


    ------------------------------------------------------------------------
         total  cpu-time : 38 minutes and 33 seconds
         total wall-time : 38 minutes and 36 seconds
    ------------------------------------------------------------------------


   ****  dscf : all done  ****


    2023-01-19 21:12:49.590 

